********************************************************************************
*                       GENERAL UTILITY LATTICE PROGRAM                        *
*                                 Julian Gale                                  *
*                      Nanochemistry Research Institute                        *
*                           Department of Chemistry                            *
*                    Curtin University, Western Australia                      *
********************************************************************************
* Version = 4.0.3 * Last modified =  20th April 2012                           *
********************************************************************************

**** Warning - inter/intra/both/bond directive given on potential line ****
**** but the molecule directive is currently inactive                  ****
*  optimise     - perform optimisation run                                     *
*  conp         - constant pressure calculation                                *
*  nosymmetry   - turn off symmetry after initial structure generation         *
*  full         - generate full unit cell when symmetry is removed             *
*  distance     - calculate distances                                          *
********************************************************************************
* BaSrmix                                                                      *
********************************************************************************


  Job Started  at 01:43.34  6th December   2018                               

  Number of CPUs =     1

  Host name      = node165.iceberg.shef.ac.uk              


  Total number of configurations input =   1

  Configuration number =   1

  **** Unit cell is not charge neutral    ****
  **** Sum of charges =  -12.0000000000   ****
  **** Check that a special position atom ****
  **** coordinate has not been varied     ****


  Current coordinates : 

--------------------------------------------------------------------------------
     No.  Atomic         x            y            z          Charge  Occupancy
          Number       (frac)       (frac)       (frac)         (e)  
--------------------------------------------------------------------------------
      1  Ba    c      0.000000     0.000000     0.000000      3.450000  1.0000
      2  Ba    c      0.000000     0.000000     0.200000      3.450000  1.0000
      3  Ba    c      0.000000     0.000000     0.400000      3.450000  1.0000
      4  Ba    c      0.000000     0.000000     0.600000      3.450000  1.0000
      5  Ba    c      0.000000     0.000000     0.800000      3.450000  1.0000
      6  Ba    c      0.000000     0.200000     0.000000      3.450000  1.0000
      7  Ba    c      0.000000     0.200000     0.200000      3.450000  1.0000
      8  Ba    c      0.000000     0.200000     0.600000      3.450000  1.0000
      9  Ba    c      0.000000     0.200000     0.800000      3.450000  1.0000
     10  Ba    c      0.000000     0.400000     0.000000      3.450000  1.0000
     11  Ba    c      0.000000     0.400000     0.200000      3.450000  1.0000
     12  Ba    c      0.000000     0.400000     0.400000      3.450000  1.0000
     13  Ba    c      0.000000     0.400000     0.600000      3.450000  1.0000
     14  Ba    c      0.000000     0.400000     0.800000      3.450000  1.0000
     15  Ba    c      0.000000     0.600000     0.000000      3.450000  1.0000
     16  Ba    c      0.000000     0.600000     0.200000      3.450000  1.0000
     17  Ba    c      0.000000     0.600000     0.400000      3.450000  1.0000
     18  Ba    c      0.000000     0.600000     0.600000      3.450000  1.0000
     19  Ba    c      0.000000     0.600000     0.800000      3.450000  1.0000
     20  Ba    c      0.000000     0.800000     0.000000      3.450000  1.0000
     21  Ba    c      0.000000     0.800000     0.200000      3.450000  1.0000
     22  Ba    c      0.000000     0.800000     0.400000      3.450000  1.0000
     23  Ba    c      0.000000     0.800000     0.600000      3.450000  1.0000
     24  Ba    c      0.000000     0.800000     0.800000      3.450000  1.0000
     25  Ba    c      0.200000     0.000000     0.000000      3.450000  1.0000
     26  Ba    c      0.200000     0.000000     0.200000      3.450000  1.0000
     27  Ba    c      0.200000     0.000000     0.400000      3.450000  1.0000
     28  Ba    c      0.200000     0.000000     0.600000      3.450000  1.0000
     29  Ba    c      0.200000     0.000000     0.800000      3.450000  1.0000
     30  Ba    c      0.200000     0.200000     0.000000      3.450000  1.0000
     31  Ba    c      0.200000     0.200000     0.200000      3.450000  1.0000
     32  Ba    c      0.200000     0.200000     0.400000      3.450000  1.0000
     33  Ba    c      0.200000     0.200000     0.600000      3.450000  1.0000
     34  Ba    c      0.200000     0.200000     0.800000      3.450000  1.0000
     35  Ba    c      0.200000     0.400000     0.000000      3.450000  1.0000
     36  Ba    c      0.200000     0.400000     0.200000      3.450000  1.0000
     37  Ba    c      0.200000     0.400000     0.400000      3.450000  1.0000
     38  Ba    c      0.200000     0.400000     0.600000      3.450000  1.0000
     39  Ba    c      0.200000     0.400000     0.800000      3.450000  1.0000
     40  Ba    c      0.200000     0.600000     0.000000      3.450000  1.0000
     41  Ba    c      0.200000     0.600000     0.200000      3.450000  1.0000
     42  Ba    c      0.200000     0.600000     0.400000      3.450000  1.0000
     43  Ba    c      0.200000     0.600000     0.600000      3.450000  1.0000
     44  Ba    c      0.200000     0.600000     0.800000      3.450000  1.0000
     45  Ba    c      0.200000     0.800000     0.000000      3.450000  1.0000
     46  Ba    c      0.200000     0.800000     0.200000      3.450000  1.0000
     47  Ba    c      0.200000     0.800000     0.400000      3.450000  1.0000
     48  Ba    c      0.200000     0.800000     0.600000      3.450000  1.0000
     49  Ba    c      0.200000     0.800000     0.800000      3.450000  1.0000
     50  Ba    c      0.400000     0.000000     0.000000      3.450000  1.0000
     51  Ba    c      0.400000     0.000000     0.200000      3.450000  1.0000
     52  Ba    c      0.400000     0.000000     0.400000      3.450000  1.0000
     53  Ba    c      0.400000     0.000000     0.600000      3.450000  1.0000
     54  Ba    c      0.400000     0.000000     0.800000      3.450000  1.0000
     55  Ba    c      0.400000     0.200000     0.000000      3.450000  1.0000
     56  Ba    c      0.400000     0.200000     0.200000      3.450000  1.0000
     57  Ba    c      0.400000     0.200000     0.400000      3.450000  1.0000
     58  Ba    c      0.400000     0.200000     0.600000      3.450000  1.0000
     59  Ba    c      0.400000     0.200000     0.800000      3.450000  1.0000
     60  Ba    c      0.400000     0.400000     0.000000      3.450000  1.0000
     61  Ba    c      0.400000     0.400000     0.200000      3.450000  1.0000
     62  Ba    c      0.400000     0.400000     0.400000      3.450000  1.0000
     63  Ba    c      0.400000     0.400000     0.600000      3.450000  1.0000
     64  Ba    c      0.400000     0.400000     0.800000      3.450000  1.0000
     65  Ba    c      0.400000     0.600000     0.000000      3.450000  1.0000
     66  Ba    c      0.400000     0.600000     0.200000      3.450000  1.0000
     67  Ba    c      0.400000     0.600000     0.400000      3.450000  1.0000
     68  Ba    c      0.400000     0.600000     0.600000      3.450000  1.0000
     69  Ba    c      0.400000     0.600000     0.800000      3.450000  1.0000
     70  Ba    c      0.400000     0.800000     0.000000      3.450000  1.0000
     71  Ba    c      0.400000     0.800000     0.200000      3.450000  1.0000
     72  Ba    c      0.400000     0.800000     0.400000      3.450000  1.0000
     73  Ba    c      0.400000     0.800000     0.600000      3.450000  1.0000
     74  Ba    c      0.400000     0.800000     0.800000      3.450000  1.0000
     75  Ba    c      0.600000     0.000000     0.000000      3.450000  1.0000
     76  Ba    c      0.600000     0.000000     0.200000      3.450000  1.0000
     77  Ba    c      0.600000     0.000000     0.400000      3.450000  1.0000
     78  Ba    c      0.600000     0.000000     0.600000      3.450000  1.0000
     79  Ba    c      0.600000     0.000000     0.800000      3.450000  1.0000
     80  Ba    c      0.600000     0.200000     0.000000      3.450000  1.0000
     81  Ba    c      0.600000     0.200000     0.200000      3.450000  1.0000
     82  Ba    c      0.600000     0.200000     0.400000      3.450000  1.0000
     83  Ba    c      0.600000     0.200000     0.600000      3.450000  1.0000
     84  Ba    c      0.600000     0.200000     0.800000      3.450000  1.0000
     85  Ba    c      0.600000     0.400000     0.000000      3.450000  1.0000
     86  Ba    c      0.600000     0.400000     0.200000      3.450000  1.0000
     87  Ba    c      0.600000     0.400000     0.400000      3.450000  1.0000
     88  Ba    c      0.600000     0.400000     0.600000      3.450000  1.0000
     89  Ba    c      0.600000     0.400000     0.800000      3.450000  1.0000
     90  Ba    c      0.600000     0.600000     0.000000      3.450000  1.0000
     91  Ba    c      0.600000     0.600000     0.200000      3.450000  1.0000
     92  Ba    c      0.600000     0.600000     0.400000      3.450000  1.0000
     93  Ba    c      0.600000     0.600000     0.600000      3.450000  1.0000
     94  Ba    c      0.600000     0.600000     0.800000      3.450000  1.0000
     95  Ba    c      0.600000     0.800000     0.000000      3.450000  1.0000
     96  Ba    c      0.600000     0.800000     0.200000      3.450000  1.0000
     97  Ba    c      0.600000     0.800000     0.400000      3.450000  1.0000
     98  Ba    c      0.600000     0.800000     0.600000      3.450000  1.0000
     99  Ba    c      0.600000     0.800000     0.800000      3.450000  1.0000
    100  Ba    c      0.800000     0.000000     0.000000      3.450000  1.0000
    101  Ba    c      0.800000     0.000000     0.200000      3.450000  1.0000
    102  Ba    c      0.800000     0.000000     0.400000      3.450000  1.0000
    103  Ba    c      0.800000     0.000000     0.600000      3.450000  1.0000
    104  Ba    c      0.800000     0.000000     0.800000      3.450000  1.0000
    105  Ba    c      0.800000     0.200000     0.000000      3.450000  1.0000
    106  Ba    c      0.800000     0.200000     0.200000      3.450000  1.0000
    107  Ba    c      0.800000     0.200000     0.400000      3.450000  1.0000
    108  Ba    c      0.800000     0.200000     0.600000      3.450000  1.0000
    109  Ba    c      0.800000     0.200000     0.800000      3.450000  1.0000
    110  Ba    c      0.800000     0.400000     0.000000      3.450000  1.0000
    111  Ba    c      0.800000     0.400000     0.200000      3.450000  1.0000
    112  Ba    c      0.800000     0.400000     0.400000      3.450000  1.0000
    113  Ba    c      0.800000     0.400000     0.600000      3.450000  1.0000
    114  Ba    c      0.800000     0.400000     0.800000      3.450000  1.0000
    115  Ba    c      0.800000     0.600000     0.000000      3.450000  1.0000
    116  Ba    c      0.800000     0.600000     0.200000      3.450000  1.0000
    117  Ba    c      0.800000     0.600000     0.400000      3.450000  1.0000
    118  Ba    c      0.800000     0.600000     0.600000      3.450000  1.0000
    119  Ba    c      0.800000     0.600000     0.800000      3.450000  1.0000
    120  Ba    c      0.800000     0.800000     0.000000      3.450000  1.0000
    121  Ba    c      0.800000     0.800000     0.200000      3.450000  1.0000
    122  Ba    c      0.800000     0.800000     0.400000      3.450000  1.0000
    123  Ba    c      0.800000     0.800000     0.600000      3.450000  1.0000
    124  Ba    c      0.800000     0.800000     0.800000      3.450000  1.0000
    125  Ti    c      0.100000     0.100000     0.100000      4.000000  1.0000
    126  Ti    c      0.100000     0.100000     0.300000      4.000000  1.0000
    127  Ti    c      0.100000     0.100000     0.500000      4.000000  1.0000
    128  Ti    c      0.100000     0.100000     0.700000      4.000000  1.0000
    129  Ti    c      0.100000     0.100000     0.900000      4.000000  1.0000
    130  Ti    c      0.100000     0.300000     0.100000      4.000000  1.0000
    131  Ti    c      0.100000     0.300000     0.300000      4.000000  1.0000
    132  Ti    c      0.100000     0.300000     0.500000      4.000000  1.0000
    133  Ti    c      0.100000     0.300000     0.700000      4.000000  1.0000
    134  Ti    c      0.100000     0.300000     0.900000      4.000000  1.0000
    135  Ti    c      0.100000     0.500000     0.100000      4.000000  1.0000
    136  Ti    c      0.100000     0.500000     0.300000      4.000000  1.0000
    137  Ti    c      0.100000     0.500000     0.500000      4.000000  1.0000
    138  Ti    c      0.100000     0.500000     0.700000      4.000000  1.0000
    139  Ti    c      0.100000     0.500000     0.900000      4.000000  1.0000
    140  Ti    c      0.100000     0.700000     0.100000      4.000000  1.0000
    141  Ti    c      0.100000     0.700000     0.300000      4.000000  1.0000
    142  Ti    c      0.100000     0.700000     0.500000      4.000000  1.0000
    143  Ti    c      0.100000     0.700000     0.700000      4.000000  1.0000
    144  Ti    c      0.100000     0.900000     0.100000      4.000000  1.0000
    145  Ti    c      0.100000     0.900000     0.300000      4.000000  1.0000
    146  Ti    c      0.100000     0.900000     0.500000      4.000000  1.0000
    147  Ti    c      0.100000     0.900000     0.700000      4.000000  1.0000
    148  Ti    c      0.100000     0.900000     0.900000      4.000000  1.0000
    149  Ti    c      0.300000     0.100000     0.100000      4.000000  1.0000
    150  Ti    c      0.300000     0.100000     0.300000      4.000000  1.0000
    151  Ti    c      0.300000     0.100000     0.500000      4.000000  1.0000
    152  Ti    c      0.300000     0.100000     0.700000      4.000000  1.0000
    153  Ti    c      0.300000     0.100000     0.900000      4.000000  1.0000
    154  Ti    c      0.300000     0.300000     0.100000      4.000000  1.0000
    155  Ti    c      0.300000     0.300000     0.300000      4.000000  1.0000
    156  Ti    c      0.300000     0.300000     0.500000      4.000000  1.0000
    157  Ti    c      0.300000     0.300000     0.700000      4.000000  1.0000
    158  Ti    c      0.300000     0.300000     0.900000      4.000000  1.0000
    159  Ti    c      0.300000     0.500000     0.100000      4.000000  1.0000
    160  Ti    c      0.300000     0.500000     0.300000      4.000000  1.0000
    161  Ti    c      0.300000     0.500000     0.500000      4.000000  1.0000
    162  Ti    c      0.300000     0.500000     0.700000      4.000000  1.0000
    163  Ti    c      0.300000     0.500000     0.900000      4.000000  1.0000
    164  Ti    c      0.300000     0.700000     0.100000      4.000000  1.0000
    165  Ti    c      0.300000     0.700000     0.300000      4.000000  1.0000
    166  Ti    c      0.300000     0.700000     0.500000      4.000000  1.0000
    167  Ti    c      0.300000     0.700000     0.700000      4.000000  1.0000
    168  Ti    c      0.300000     0.700000     0.900000      4.000000  1.0000
    169  Ti    c      0.300000     0.900000     0.100000      4.000000  1.0000
    170  Ti    c      0.300000     0.900000     0.300000      4.000000  1.0000
    171  Ti    c      0.300000     0.900000     0.500000      4.000000  1.0000
    172  Ti    c      0.300000     0.900000     0.700000      4.000000  1.0000
    173  Ti    c      0.300000     0.900000     0.900000      4.000000  1.0000
    174  Ti    c      0.500000     0.100000     0.100000      4.000000  1.0000
    175  Ti    c      0.500000     0.100000     0.300000      4.000000  1.0000
    176  Ti    c      0.500000     0.100000     0.500000      4.000000  1.0000
    177  Ti    c      0.500000     0.100000     0.700000      4.000000  1.0000
    178  Ti    c      0.500000     0.100000     0.900000      4.000000  1.0000
    179  Ti    c      0.500000     0.300000     0.100000      4.000000  1.0000
    180  Ti    c      0.500000     0.300000     0.300000      4.000000  1.0000
    181  Ti    c      0.500000     0.300000     0.500000      4.000000  1.0000
    182  Ti    c      0.500000     0.300000     0.700000      4.000000  1.0000
    183  Ti    c      0.500000     0.300000     0.900000      4.000000  1.0000
    184  Ti    c      0.500000     0.500000     0.100000      4.000000  1.0000
    185  Ti    c      0.500000     0.500000     0.300000      4.000000  1.0000
    186  Ti    c      0.500000     0.500000     0.500000      4.000000  1.0000
    187  Ti    c      0.500000     0.500000     0.700000      4.000000  1.0000
    188  Ti    c      0.500000     0.500000     0.900000      4.000000  1.0000
    189  Ti    c      0.500000     0.700000     0.100000      4.000000  1.0000
    190  Ti    c      0.500000     0.700000     0.300000      4.000000  1.0000
    191  Ti    c      0.500000     0.700000     0.700000      4.000000  1.0000
    192  Ti    c      0.500000     0.700000     0.900000      4.000000  1.0000
    193  Ti    c      0.500000     0.900000     0.100000      4.000000  1.0000
    194  Ti    c      0.500000     0.900000     0.300000      4.000000  1.0000
    195  Ti    c      0.500000     0.900000     0.500000      4.000000  1.0000
    196  Ti    c      0.500000     0.900000     0.700000      4.000000  1.0000
    197  Ti    c      0.500000     0.900000     0.900000      4.000000  1.0000
    198  Ti    c      0.700000     0.100000     0.100000      4.000000  1.0000
    199  Ti    c      0.700000     0.100000     0.300000      4.000000  1.0000
    200  Ti    c      0.700000     0.100000     0.500000      4.000000  1.0000
    201  Ti    c      0.700000     0.100000     0.700000      4.000000  1.0000
    202  Ti    c      0.700000     0.100000     0.900000      4.000000  1.0000
    203  Ti    c      0.700000     0.300000     0.100000      4.000000  1.0000
    204  Ti    c      0.700000     0.300000     0.300000      4.000000  1.0000
    205  Ti    c      0.700000     0.300000     0.500000      4.000000  1.0000
    206  Ti    c      0.700000     0.300000     0.700000      4.000000  1.0000
    207  Ti    c      0.700000     0.300000     0.900000      4.000000  1.0000
    208  Ti    c      0.700000     0.500000     0.100000      4.000000  1.0000
    209  Ti    c      0.700000     0.500000     0.300000      4.000000  1.0000
    210  Ti    c      0.700000     0.500000     0.500000      4.000000  1.0000
    211  Ti    c      0.700000     0.500000     0.700000      4.000000  1.0000
    212  Ti    c      0.700000     0.500000     0.900000      4.000000  1.0000
    213  Ti    c      0.700000     0.700000     0.100000      4.000000  1.0000
    214  Ti    c      0.700000     0.700000     0.300000      4.000000  1.0000
    215  Ti    c      0.700000     0.700000     0.500000      4.000000  1.0000
    216  Ti    c      0.700000     0.700000     0.700000      4.000000  1.0000
    217  Ti    c      0.700000     0.700000     0.900000      4.000000  1.0000
    218  Ti    c      0.700000     0.900000     0.100000      4.000000  1.0000
    219  Ti    c      0.700000     0.900000     0.300000      4.000000  1.0000
    220  Ti    c      0.700000     0.900000     0.500000      4.000000  1.0000
    221  Ti    c      0.700000     0.900000     0.700000      4.000000  1.0000
    222  Ti    c      0.700000     0.900000     0.900000      4.000000  1.0000
    223  Ti    c      0.900000     0.100000     0.100000      4.000000  1.0000
    224  Ti    c      0.900000     0.100000     0.300000      4.000000  1.0000
    225  Ti    c      0.900000     0.100000     0.500000      4.000000  1.0000
    226  Ti    c      0.900000     0.100000     0.700000      4.000000  1.0000
    227  Ti    c      0.900000     0.100000     0.900000      4.000000  1.0000
    228  Ti    c      0.900000     0.300000     0.100000      4.000000  1.0000
    229  Ti    c      0.900000     0.300000     0.300000      4.000000  1.0000
    230  Ti    c      0.900000     0.300000     0.700000      4.000000  1.0000
    231  Ti    c      0.900000     0.300000     0.900000      4.000000  1.0000
    232  Ti    c      0.900000     0.500000     0.100000      4.000000  1.0000
    233  Ti    c      0.900000     0.500000     0.300000      4.000000  1.0000
    234  Ti    c      0.900000     0.500000     0.500000      4.000000  1.0000
    235  Ti    c      0.900000     0.500000     0.700000      4.000000  1.0000
    236  Ti    c      0.900000     0.500000     0.900000      4.000000  1.0000
    237  Ti    c      0.900000     0.700000     0.100000      4.000000  1.0000
    238  Ti    c      0.900000     0.700000     0.300000      4.000000  1.0000
    239  Ti    c      0.900000     0.700000     0.500000      4.000000  1.0000
    240  Ti    c      0.900000     0.700000     0.700000      4.000000  1.0000
    241  Ti    c      0.900000     0.700000     0.900000      4.000000  1.0000
    242  Ti    c      0.900000     0.900000     0.100000      4.000000  1.0000
    243  Ti    c      0.900000     0.900000     0.300000      4.000000  1.0000
    244  Ti    c      0.900000     0.900000     0.500000      4.000000  1.0000
    245  Ti    c      0.900000     0.900000     0.700000      4.000000  1.0000
    246  Ti    c      0.900000     0.900000     0.900000      4.000000  1.0000
    247  O     c      0.100000     0.100000     0.000000      0.472000  1.0000
    248  O     c      0.100000     0.100000     0.200000      0.472000  1.0000
    249  O     c      0.100000     0.100000     0.400000      0.472000  1.0000
    250  O     c      0.100000     0.100000     0.600000      0.472000  1.0000
    251  O     c      0.100000     0.100000     0.800000      0.472000  1.0000
    252  O     c      0.100000     0.300000     0.000000      0.472000  1.0000
    253  O     c      0.100000     0.300000     0.200000      0.472000  1.0000
    254  O     c      0.100000     0.300000     0.400000      0.472000  1.0000
    255  O     c      0.100000     0.300000     0.600000      0.472000  1.0000
    256  O     c      0.100000     0.300000     0.800000      0.472000  1.0000
    257  O     c      0.100000     0.500000     0.000000      0.472000  1.0000
    258  O     c      0.100000     0.500000     0.200000      0.472000  1.0000
    259  O     c      0.100000     0.500000     0.400000      0.472000  1.0000
    260  O     c      0.100000     0.500000     0.600000      0.472000  1.0000
    261  O     c      0.100000     0.500000     0.800000      0.472000  1.0000
    262  O     c      0.100000     0.700000     0.000000      0.472000  1.0000
    263  O     c      0.100000     0.700000     0.200000      0.472000  1.0000
    264  O     c      0.100000     0.700000     0.400000      0.472000  1.0000
    265  O     c      0.100000     0.700000     0.600000      0.472000  1.0000
    266  O     c      0.100000     0.700000     0.800000      0.472000  1.0000
    267  O     c      0.100000     0.900000     0.000000      0.472000  1.0000
    268  O     c      0.100000     0.900000     0.200000      0.472000  1.0000
    269  O     c      0.100000     0.900000     0.400000      0.472000  1.0000
    270  O     c      0.100000     0.900000     0.600000      0.472000  1.0000
    271  O     c      0.100000     0.900000     0.800000      0.472000  1.0000
    272  O     c      0.300000     0.100000     0.000000      0.472000  1.0000
    273  O     c      0.300000     0.100000     0.200000      0.472000  1.0000
    274  O     c      0.300000     0.100000     0.400000      0.472000  1.0000
    275  O     c      0.300000     0.100000     0.600000      0.472000  1.0000
    276  O     c      0.300000     0.100000     0.800000      0.472000  1.0000
    277  O     c      0.300000     0.300000     0.000000      0.472000  1.0000
    278  O     c      0.300000     0.300000     0.200000      0.472000  1.0000
    279  O     c      0.300000     0.300000     0.400000      0.472000  1.0000
    280  O     c      0.300000     0.300000     0.600000      0.472000  1.0000
    281  O     c      0.300000     0.300000     0.800000      0.472000  1.0000
    282  O     c      0.300000     0.500000     0.000000      0.472000  1.0000
    283  O     c      0.300000     0.500000     0.200000      0.472000  1.0000
    284  O     c      0.300000     0.500000     0.400000      0.472000  1.0000
    285  O     c      0.300000     0.500000     0.600000      0.472000  1.0000
    286  O     c      0.300000     0.500000     0.800000      0.472000  1.0000
    287  O     c      0.300000     0.700000     0.000000      0.472000  1.0000
    288  O     c      0.300000     0.700000     0.200000      0.472000  1.0000
    289  O     c      0.300000     0.700000     0.400000      0.472000  1.0000
    290  O     c      0.300000     0.700000     0.600000      0.472000  1.0000
    291  O     c      0.300000     0.900000     0.000000      0.472000  1.0000
    292  O     c      0.300000     0.900000     0.200000      0.472000  1.0000
    293  O     c      0.300000     0.900000     0.400000      0.472000  1.0000
    294  O     c      0.300000     0.900000     0.600000      0.472000  1.0000
    295  O     c      0.300000     0.900000     0.800000      0.472000  1.0000
    296  O     c      0.500000     0.100000     0.000000      0.472000  1.0000
    297  O     c      0.500000     0.100000     0.200000      0.472000  1.0000
    298  O     c      0.500000     0.100000     0.400000      0.472000  1.0000
    299  O     c      0.500000     0.100000     0.600000      0.472000  1.0000
    300  O     c      0.500000     0.100000     0.800000      0.472000  1.0000
    301  O     c      0.500000     0.300000     0.000000      0.472000  1.0000
    302  O     c      0.500000     0.300000     0.200000      0.472000  1.0000
    303  O     c      0.500000     0.300000     0.400000      0.472000  1.0000
    304  O     c      0.500000     0.300000     0.600000      0.472000  1.0000
    305  O     c      0.500000     0.300000     0.800000      0.472000  1.0000
    306  O     c      0.500000     0.500000     0.000000      0.472000  1.0000
    307  O     c      0.500000     0.500000     0.200000      0.472000  1.0000
    308  O     c      0.500000     0.500000     0.400000      0.472000  1.0000
    309  O     c      0.500000     0.500000     0.600000      0.472000  1.0000
    310  O     c      0.500000     0.500000     0.800000      0.472000  1.0000
    311  O     c      0.500000     0.700000     0.000000      0.472000  1.0000
    312  O     c      0.500000     0.700000     0.200000      0.472000  1.0000
    313  O     c      0.500000     0.700000     0.400000      0.472000  1.0000
    314  O     c      0.500000     0.700000     0.600000      0.472000  1.0000
    315  O     c      0.500000     0.700000     0.800000      0.472000  1.0000
    316  O     c      0.500000     0.900000     0.000000      0.472000  1.0000
    317  O     c      0.500000     0.900000     0.200000      0.472000  1.0000
    318  O     c      0.500000     0.900000     0.400000      0.472000  1.0000
    319  O     c      0.500000     0.900000     0.600000      0.472000  1.0000
    320  O     c      0.500000     0.900000     0.800000      0.472000  1.0000
    321  O     c      0.700000     0.100000     0.000000      0.472000  1.0000
    322  O     c      0.700000     0.100000     0.200000      0.472000  1.0000
    323  O     c      0.700000     0.100000     0.400000      0.472000  1.0000
    324  O     c      0.700000     0.100000     0.600000      0.472000  1.0000
    325  O     c      0.700000     0.100000     0.800000      0.472000  1.0000
    326  O     c      0.700000     0.300000     0.000000      0.472000  1.0000
    327  O     c      0.700000     0.300000     0.200000      0.472000  1.0000
    328  O     c      0.700000     0.300000     0.400000      0.472000  1.0000
    329  O     c      0.700000     0.300000     0.600000      0.472000  1.0000
    330  O     c      0.700000     0.300000     0.800000      0.472000  1.0000
    331  O     c      0.700000     0.500000     0.000000      0.472000  1.0000
    332  O     c      0.700000     0.500000     0.200000      0.472000  1.0000
    333  O     c      0.700000     0.500000     0.400000      0.472000  1.0000
    334  O     c      0.700000     0.500000     0.600000      0.472000  1.0000
    335  O     c      0.700000     0.500000     0.800000      0.472000  1.0000
    336  O     c      0.700000     0.700000     0.000000      0.472000  1.0000
    337  O     c      0.700000     0.700000     0.200000      0.472000  1.0000
    338  O     c      0.700000     0.700000     0.400000      0.472000  1.0000
    339  O     c      0.700000     0.700000     0.600000      0.472000  1.0000
    340  O     c      0.700000     0.700000     0.800000      0.472000  1.0000
    341  O     c      0.700000     0.900000     0.000000      0.472000  1.0000
    342  O     c      0.700000     0.900000     0.200000      0.472000  1.0000
    343  O     c      0.700000     0.900000     0.400000      0.472000  1.0000
    344  O     c      0.700000     0.900000     0.600000      0.472000  1.0000
    345  O     c      0.700000     0.900000     0.800000      0.472000  1.0000
    346  O     c      0.900000     0.100000     0.000000      0.472000  1.0000
    347  O     c      0.900000     0.100000     0.200000      0.472000  1.0000
    348  O     c      0.900000     0.100000     0.400000      0.472000  1.0000
    349  O     c      0.900000     0.100000     0.600000      0.472000  1.0000
    350  O     c      0.900000     0.100000     0.800000      0.472000  1.0000
    351  O     c      0.900000     0.300000     0.000000      0.472000  1.0000
    352  O     c      0.900000     0.300000     0.200000      0.472000  1.0000
    353  O     c      0.900000     0.300000     0.400000      0.472000  1.0000
    354  O     c      0.900000     0.300000     0.600000      0.472000  1.0000
    355  O     c      0.900000     0.300000     0.800000      0.472000  1.0000
    356  O     c      0.900000     0.500000     0.000000      0.472000  1.0000
    357  O     c      0.900000     0.500000     0.200000      0.472000  1.0000
    358  O     c      0.900000     0.500000     0.400000      0.472000  1.0000
    359  O     c      0.900000     0.500000     0.600000      0.472000  1.0000
    360  O     c      0.900000     0.500000     0.800000      0.472000  1.0000
    361  O     c      0.900000     0.700000     0.000000      0.472000  1.0000
    362  O     c      0.900000     0.700000     0.200000      0.472000  1.0000
    363  O     c      0.900000     0.700000     0.400000      0.472000  1.0000
    364  O     c      0.900000     0.700000     0.600000      0.472000  1.0000
    365  O     c      0.900000     0.700000     0.800000      0.472000  1.0000
    366  O     c      0.900000     0.900000     0.000000      0.472000  1.0000
    367  O     c      0.900000     0.900000     0.200000      0.472000  1.0000
    368  O     c      0.900000     0.900000     0.400000      0.472000  1.0000
    369  O     c      0.900000     0.900000     0.600000      0.472000  1.0000
    370  O     c      0.900000     0.900000     0.800000      0.472000  1.0000
    371  O     c      0.000000     0.100000     0.100000      0.472000  1.0000
    372  O     c      0.000000     0.100000     0.300000      0.472000  1.0000
    373  O     c      0.000000     0.100000     0.500000      0.472000  1.0000
    374  O     c      0.000000     0.100000     0.700000      0.472000  1.0000
    375  O     c      0.000000     0.100000     0.900000      0.472000  1.0000
    376  O     c      0.000000     0.300000     0.100000      0.472000  1.0000
    377  O     c      0.000000     0.300000     0.300000      0.472000  1.0000
    378  O     c      0.000000     0.300000     0.500000      0.472000  1.0000
    379  O     c      0.000000     0.300000     0.700000      0.472000  1.0000
    380  O     c      0.000000     0.300000     0.900000      0.472000  1.0000
    381  O     c      0.000000     0.500000     0.100000      0.472000  1.0000
    382  O     c      0.000000     0.500000     0.300000      0.472000  1.0000
    383  O     c      0.000000     0.500000     0.500000      0.472000  1.0000
    384  O     c      0.000000     0.500000     0.700000      0.472000  1.0000
    385  O     c      0.000000     0.500000     0.900000      0.472000  1.0000
    386  O     c      0.000000     0.700000     0.100000      0.472000  1.0000
    387  O     c      0.000000     0.700000     0.300000      0.472000  1.0000
    388  O     c      0.000000     0.700000     0.500000      0.472000  1.0000
    389  O     c      0.000000     0.700000     0.700000      0.472000  1.0000
    390  O     c      0.000000     0.700000     0.900000      0.472000  1.0000
    391  O     c      0.000000     0.900000     0.100000      0.472000  1.0000
    392  O     c      0.000000     0.900000     0.300000      0.472000  1.0000
    393  O     c      0.000000     0.900000     0.500000      0.472000  1.0000
    394  O     c      0.000000     0.900000     0.700000      0.472000  1.0000
    395  O     c      0.000000     0.900000     0.900000      0.472000  1.0000
    396  O     c      0.200000     0.100000     0.100000      0.472000  1.0000
    397  O     c      0.200000     0.100000     0.300000      0.472000  1.0000
    398  O     c      0.200000     0.100000     0.500000      0.472000  1.0000
    399  O     c      0.200000     0.100000     0.700000      0.472000  1.0000
    400  O     c      0.200000     0.100000     0.900000      0.472000  1.0000
    401  O     c      0.200000     0.300000     0.100000      0.472000  1.0000
    402  O     c      0.200000     0.300000     0.300000      0.472000  1.0000
    403  O     c      0.200000     0.300000     0.500000      0.472000  1.0000
    404  O     c      0.200000     0.300000     0.700000      0.472000  1.0000
    405  O     c      0.200000     0.300000     0.900000      0.472000  1.0000
    406  O     c      0.200000     0.500000     0.100000      0.472000  1.0000
    407  O     c      0.200000     0.500000     0.300000      0.472000  1.0000
    408  O     c      0.200000     0.500000     0.500000      0.472000  1.0000
    409  O     c      0.200000     0.500000     0.700000      0.472000  1.0000
    410  O     c      0.200000     0.500000     0.900000      0.472000  1.0000
    411  O     c      0.200000     0.700000     0.100000      0.472000  1.0000
    412  O     c      0.200000     0.700000     0.300000      0.472000  1.0000
    413  O     c      0.200000     0.700000     0.500000      0.472000  1.0000
    414  O     c      0.200000     0.700000     0.700000      0.472000  1.0000
    415  O     c      0.200000     0.700000     0.900000      0.472000  1.0000
    416  O     c      0.200000     0.900000     0.100000      0.472000  1.0000
    417  O     c      0.200000     0.900000     0.300000      0.472000  1.0000
    418  O     c      0.200000     0.900000     0.500000      0.472000  1.0000
    419  O     c      0.200000     0.900000     0.700000      0.472000  1.0000
    420  O     c      0.200000     0.900000     0.900000      0.472000  1.0000
    421  O     c      0.400000     0.100000     0.100000      0.472000  1.0000
    422  O     c      0.400000     0.100000     0.300000      0.472000  1.0000
    423  O     c      0.400000     0.100000     0.500000      0.472000  1.0000
    424  O     c      0.400000     0.100000     0.700000      0.472000  1.0000
    425  O     c      0.400000     0.100000     0.900000      0.472000  1.0000
    426  O     c      0.400000     0.300000     0.100000      0.472000  1.0000
    427  O     c      0.400000     0.300000     0.300000      0.472000  1.0000
    428  O     c      0.400000     0.300000     0.500000      0.472000  1.0000
    429  O     c      0.400000     0.300000     0.700000      0.472000  1.0000
    430  O     c      0.400000     0.300000     0.900000      0.472000  1.0000
    431  O     c      0.400000     0.500000     0.100000      0.472000  1.0000
    432  O     c      0.400000     0.500000     0.300000      0.472000  1.0000
    433  O     c      0.400000     0.500000     0.500000      0.472000  1.0000
    434  O     c      0.400000     0.500000     0.700000      0.472000  1.0000
    435  O     c      0.400000     0.500000     0.900000      0.472000  1.0000
    436  O     c      0.400000     0.700000     0.100000      0.472000  1.0000
    437  O     c      0.400000     0.700000     0.300000      0.472000  1.0000
    438  O     c      0.400000     0.700000     0.500000      0.472000  1.0000
    439  O     c      0.400000     0.700000     0.700000      0.472000  1.0000
    440  O     c      0.400000     0.700000     0.900000      0.472000  1.0000
    441  O     c      0.400000     0.900000     0.100000      0.472000  1.0000
    442  O     c      0.400000     0.900000     0.300000      0.472000  1.0000
    443  O     c      0.400000     0.900000     0.500000      0.472000  1.0000
    444  O     c      0.400000     0.900000     0.700000      0.472000  1.0000
    445  O     c      0.400000     0.900000     0.900000      0.472000  1.0000
    446  O     c      0.600000     0.100000     0.100000      0.472000  1.0000
    447  O     c      0.600000     0.100000     0.300000      0.472000  1.0000
    448  O     c      0.600000     0.100000     0.500000      0.472000  1.0000
    449  O     c      0.600000     0.100000     0.700000      0.472000  1.0000
    450  O     c      0.600000     0.100000     0.900000      0.472000  1.0000
    451  O     c      0.600000     0.300000     0.100000      0.472000  1.0000
    452  O     c      0.600000     0.300000     0.300000      0.472000  1.0000
    453  O     c      0.600000     0.300000     0.500000      0.472000  1.0000
    454  O     c      0.600000     0.300000     0.700000      0.472000  1.0000
    455  O     c      0.600000     0.300000     0.900000      0.472000  1.0000
    456  O     c      0.600000     0.500000     0.100000      0.472000  1.0000
    457  O     c      0.600000     0.500000     0.300000      0.472000  1.0000
    458  O     c      0.600000     0.500000     0.500000      0.472000  1.0000
    459  O     c      0.600000     0.500000     0.700000      0.472000  1.0000
    460  O     c      0.600000     0.500000     0.900000      0.472000  1.0000
    461  O     c      0.600000     0.700000     0.100000      0.472000  1.0000
    462  O     c      0.600000     0.700000     0.300000      0.472000  1.0000
    463  O     c      0.600000     0.700000     0.500000      0.472000  1.0000
    464  O     c      0.600000     0.700000     0.700000      0.472000  1.0000
    465  O     c      0.600000     0.700000     0.900000      0.472000  1.0000
    466  O     c      0.600000     0.900000     0.100000      0.472000  1.0000
    467  O     c      0.600000     0.900000     0.300000      0.472000  1.0000
    468  O     c      0.600000     0.900000     0.500000      0.472000  1.0000
    469  O     c      0.600000     0.900000     0.700000      0.472000  1.0000
    470  O     c      0.600000     0.900000     0.900000      0.472000  1.0000
    471  O     c      0.800000     0.100000     0.100000      0.472000  1.0000
    472  O     c      0.800000     0.100000     0.300000      0.472000  1.0000
    473  O     c      0.800000     0.100000     0.500000      0.472000  1.0000
    474  O     c      0.800000     0.100000     0.700000      0.472000  1.0000
    475  O     c      0.800000     0.100000     0.900000      0.472000  1.0000
    476  O     c      0.800000     0.300000     0.100000      0.472000  1.0000
    477  O     c      0.800000     0.300000     0.300000      0.472000  1.0000
    478  O     c      0.800000     0.300000     0.500000      0.472000  1.0000
    479  O     c      0.800000     0.300000     0.700000      0.472000  1.0000
    480  O     c      0.800000     0.300000     0.900000      0.472000  1.0000
    481  O     c      0.800000     0.500000     0.100000      0.472000  1.0000
    482  O     c      0.800000     0.500000     0.300000      0.472000  1.0000
    483  O     c      0.800000     0.500000     0.500000      0.472000  1.0000
    484  O     c      0.800000     0.500000     0.700000      0.472000  1.0000
    485  O     c      0.800000     0.500000     0.900000      0.472000  1.0000
    486  O     c      0.800000     0.700000     0.100000      0.472000  1.0000
    487  O     c      0.800000     0.700000     0.300000      0.472000  1.0000
    488  O     c      0.800000     0.700000     0.500000      0.472000  1.0000
    489  O     c      0.800000     0.700000     0.700000      0.472000  1.0000
    490  O     c      0.800000     0.700000     0.900000      0.472000  1.0000
    491  O     c      0.800000     0.900000     0.100000      0.472000  1.0000
    492  O     c      0.800000     0.900000     0.300000      0.472000  1.0000
    493  O     c      0.800000     0.900000     0.500000      0.472000  1.0000
    494  O     c      0.800000     0.900000     0.700000      0.472000  1.0000
    495  O     c      0.800000     0.900000     0.900000      0.472000  1.0000
    496  O     c      0.100000     0.000000     0.100000      0.472000  1.0000
    497  O     c      0.100000     0.000000     0.300000      0.472000  1.0000
    498  O     c      0.100000     0.000000     0.500000      0.472000  1.0000
    499  O     c      0.100000     0.000000     0.700000      0.472000  1.0000
    500  O     c      0.100000     0.000000     0.900000      0.472000  1.0000
    501  O     c      0.100000     0.200000     0.100000      0.472000  1.0000
    502  O     c      0.100000     0.200000     0.300000      0.472000  1.0000
    503  O     c      0.100000     0.200000     0.500000      0.472000  1.0000
    504  O     c      0.100000     0.200000     0.700000      0.472000  1.0000
    505  O     c      0.100000     0.200000     0.900000      0.472000  1.0000
    506  O     c      0.100000     0.400000     0.100000      0.472000  1.0000
    507  O     c      0.100000     0.400000     0.300000      0.472000  1.0000
    508  O     c      0.100000     0.400000     0.500000      0.472000  1.0000
    509  O     c      0.100000     0.400000     0.700000      0.472000  1.0000
    510  O     c      0.100000     0.400000     0.900000      0.472000  1.0000
    511  O     c      0.100000     0.600000     0.100000      0.472000  1.0000
    512  O     c      0.100000     0.600000     0.300000      0.472000  1.0000
    513  O     c      0.100000     0.600000     0.500000      0.472000  1.0000
    514  O     c      0.100000     0.600000     0.700000      0.472000  1.0000
    515  O     c      0.100000     0.600000     0.900000      0.472000  1.0000
    516  O     c      0.100000     0.800000     0.100000      0.472000  1.0000
    517  O     c      0.100000     0.800000     0.300000      0.472000  1.0000
    518  O     c      0.100000     0.800000     0.500000      0.472000  1.0000
    519  O     c      0.100000     0.800000     0.700000      0.472000  1.0000
    520  O     c      0.100000     0.800000     0.900000      0.472000  1.0000
    521  O     c      0.300000     0.000000     0.100000      0.472000  1.0000
    522  O     c      0.300000     0.000000     0.300000      0.472000  1.0000
    523  O     c      0.300000     0.000000     0.500000      0.472000  1.0000
    524  O     c      0.300000     0.000000     0.700000      0.472000  1.0000
    525  O     c      0.300000     0.000000     0.900000      0.472000  1.0000
    526  O     c      0.300000     0.200000     0.100000      0.472000  1.0000
    527  O     c      0.300000     0.200000     0.300000      0.472000  1.0000
    528  O     c      0.300000     0.200000     0.500000      0.472000  1.0000
    529  O     c      0.300000     0.200000     0.700000      0.472000  1.0000
    530  O     c      0.300000     0.200000     0.900000      0.472000  1.0000
    531  O     c      0.300000     0.400000     0.100000      0.472000  1.0000
    532  O     c      0.300000     0.400000     0.300000      0.472000  1.0000
    533  O     c      0.300000     0.400000     0.500000      0.472000  1.0000
    534  O     c      0.300000     0.400000     0.700000      0.472000  1.0000
    535  O     c      0.300000     0.400000     0.900000      0.472000  1.0000
    536  O     c      0.300000     0.600000     0.100000      0.472000  1.0000
    537  O     c      0.300000     0.600000     0.300000      0.472000  1.0000
    538  O     c      0.300000     0.600000     0.500000      0.472000  1.0000
    539  O     c      0.300000     0.600000     0.700000      0.472000  1.0000
    540  O     c      0.300000     0.600000     0.900000      0.472000  1.0000
    541  O     c      0.300000     0.800000     0.100000      0.472000  1.0000
    542  O     c      0.300000     0.800000     0.300000      0.472000  1.0000
    543  O     c      0.300000     0.800000     0.500000      0.472000  1.0000
    544  O     c      0.300000     0.800000     0.700000      0.472000  1.0000
    545  O     c      0.300000     0.800000     0.900000      0.472000  1.0000
    546  O     c      0.500000     0.000000     0.100000      0.472000  1.0000
    547  O     c      0.500000     0.000000     0.300000      0.472000  1.0000
    548  O     c      0.500000     0.000000     0.500000      0.472000  1.0000
    549  O     c      0.500000     0.000000     0.700000      0.472000  1.0000
    550  O     c      0.500000     0.000000     0.900000      0.472000  1.0000
    551  O     c      0.500000     0.200000     0.100000      0.472000  1.0000
    552  O     c      0.500000     0.200000     0.300000      0.472000  1.0000
    553  O     c      0.500000     0.200000     0.500000      0.472000  1.0000
    554  O     c      0.500000     0.200000     0.700000      0.472000  1.0000
    555  O     c      0.500000     0.200000     0.900000      0.472000  1.0000
    556  O     c      0.500000     0.400000     0.100000      0.472000  1.0000
    557  O     c      0.500000     0.400000     0.300000      0.472000  1.0000
    558  O     c      0.500000     0.400000     0.500000      0.472000  1.0000
    559  O     c      0.500000     0.400000     0.700000      0.472000  1.0000
    560  O     c      0.500000     0.400000     0.900000      0.472000  1.0000
    561  O     c      0.500000     0.600000     0.100000      0.472000  1.0000
    562  O     c      0.500000     0.600000     0.300000      0.472000  1.0000
    563  O     c      0.500000     0.600000     0.500000      0.472000  1.0000
    564  O     c      0.500000     0.600000     0.700000      0.472000  1.0000
    565  O     c      0.500000     0.600000     0.900000      0.472000  1.0000
    566  O     c      0.500000     0.800000     0.100000      0.472000  1.0000
    567  O     c      0.500000     0.800000     0.300000      0.472000  1.0000
    568  O     c      0.500000     0.800000     0.500000      0.472000  1.0000
    569  O     c      0.500000     0.800000     0.700000      0.472000  1.0000
    570  O     c      0.500000     0.800000     0.900000      0.472000  1.0000
    571  O     c      0.700000     0.000000     0.100000      0.472000  1.0000
    572  O     c      0.700000     0.000000     0.300000      0.472000  1.0000
    573  O     c      0.700000     0.000000     0.500000      0.472000  1.0000
    574  O     c      0.700000     0.000000     0.700000      0.472000  1.0000
    575  O     c      0.700000     0.000000     0.900000      0.472000  1.0000
    576  O     c      0.700000     0.200000     0.100000      0.472000  1.0000
    577  O     c      0.700000     0.200000     0.300000      0.472000  1.0000
    578  O     c      0.700000     0.200000     0.500000      0.472000  1.0000
    579  O     c      0.700000     0.200000     0.700000      0.472000  1.0000
    580  O     c      0.700000     0.200000     0.900000      0.472000  1.0000
    581  O     c      0.700000     0.400000     0.100000      0.472000  1.0000
    582  O     c      0.700000     0.400000     0.300000      0.472000  1.0000
    583  O     c      0.700000     0.400000     0.500000      0.472000  1.0000
    584  O     c      0.700000     0.400000     0.700000      0.472000  1.0000
    585  O     c      0.700000     0.400000     0.900000      0.472000  1.0000
    586  O     c      0.700000     0.600000     0.100000      0.472000  1.0000
    587  O     c      0.700000     0.600000     0.300000      0.472000  1.0000
    588  O     c      0.700000     0.600000     0.500000      0.472000  1.0000
    589  O     c      0.700000     0.600000     0.700000      0.472000  1.0000
    590  O     c      0.700000     0.600000     0.900000      0.472000  1.0000
    591  O     c      0.700000     0.800000     0.100000      0.472000  1.0000
    592  O     c      0.700000     0.800000     0.300000      0.472000  1.0000
    593  O     c      0.700000     0.800000     0.500000      0.472000  1.0000
    594  O     c      0.700000     0.800000     0.700000      0.472000  1.0000
    595  O     c      0.700000     0.800000     0.900000      0.472000  1.0000
    596  O     c      0.900000     0.000000     0.100000      0.472000  1.0000
    597  O     c      0.900000     0.000000     0.300000      0.472000  1.0000
    598  O     c      0.900000     0.000000     0.500000      0.472000  1.0000
    599  O     c      0.900000     0.000000     0.700000      0.472000  1.0000
    600  O     c      0.900000     0.000000     0.900000      0.472000  1.0000
    601  O     c      0.900000     0.200000     0.100000      0.472000  1.0000
    602  O     c      0.900000     0.200000     0.300000      0.472000  1.0000
    603  O     c      0.900000     0.200000     0.500000      0.472000  1.0000
    604  O     c      0.900000     0.200000     0.700000      0.472000  1.0000
    605  O     c      0.900000     0.200000     0.900000      0.472000  1.0000
    606  O     c      0.900000     0.400000     0.100000      0.472000  1.0000
    607  O     c      0.900000     0.400000     0.300000      0.472000  1.0000
    608  O     c      0.900000     0.400000     0.500000      0.472000  1.0000
    609  O     c      0.900000     0.400000     0.700000      0.472000  1.0000
    610  O     c      0.900000     0.400000     0.900000      0.472000  1.0000
    611  O     c      0.900000     0.600000     0.100000      0.472000  1.0000
    612  O     c      0.900000     0.600000     0.300000      0.472000  1.0000
    613  O     c      0.900000     0.600000     0.500000      0.472000  1.0000
    614  O     c      0.900000     0.600000     0.700000      0.472000  1.0000
    615  O     c      0.900000     0.600000     0.900000      0.472000  1.0000
    616  O     c      0.900000     0.800000     0.100000      0.472000  1.0000
    617  O     c      0.900000     0.800000     0.300000      0.472000  1.0000
    618  O     c      0.900000     0.800000     0.500000      0.472000  1.0000
    619  O     c      0.900000     0.800000     0.700000      0.472000  1.0000
    620  O     c      0.900000     0.800000     0.900000      0.472000  1.0000
    621  Ba    s      0.000000     0.000000     0.000000     -1.450000  1.0000
    622  Ba    s      0.000000     0.000000     0.200000     -1.450000  1.0000
    623  Ba    s      0.000000     0.000000     0.400000     -1.450000  1.0000
    624  Ba    s      0.000000     0.000000     0.600000     -1.450000  1.0000
    625  Ba    s      0.000000     0.000000     0.800000     -1.450000  1.0000
    626  Ba    s      0.000000     0.200000     0.000000     -1.450000  1.0000
    627  Ba    s      0.000000     0.200000     0.200000     -1.450000  1.0000
    628  Ba    s      0.000000     0.200000     0.600000     -1.450000  1.0000
    629  Ba    s      0.000000     0.200000     0.800000     -1.450000  1.0000
    630  Ba    s      0.000000     0.400000     0.000000     -1.450000  1.0000
    631  Ba    s      0.000000     0.400000     0.200000     -1.450000  1.0000
    632  Ba    s      0.000000     0.400000     0.400000     -1.450000  1.0000
    633  Ba    s      0.000000     0.400000     0.600000     -1.450000  1.0000
    634  Ba    s      0.000000     0.400000     0.800000     -1.450000  1.0000
    635  Ba    s      0.000000     0.600000     0.000000     -1.450000  1.0000
    636  Ba    s      0.000000     0.600000     0.200000     -1.450000  1.0000
    637  Ba    s      0.000000     0.600000     0.400000     -1.450000  1.0000
    638  Ba    s      0.000000     0.600000     0.600000     -1.450000  1.0000
    639  Ba    s      0.000000     0.600000     0.800000     -1.450000  1.0000
    640  Ba    s      0.000000     0.800000     0.000000     -1.450000  1.0000
    641  Ba    s      0.000000     0.800000     0.200000     -1.450000  1.0000
    642  Ba    s      0.000000     0.800000     0.400000     -1.450000  1.0000
    643  Ba    s      0.000000     0.800000     0.600000     -1.450000  1.0000
    644  Ba    s      0.000000     0.800000     0.800000     -1.450000  1.0000
    645  Ba    s      0.200000     0.000000     0.000000     -1.450000  1.0000
    646  Ba    s      0.200000     0.000000     0.200000     -1.450000  1.0000
    647  Ba    s      0.200000     0.000000     0.400000     -1.450000  1.0000
    648  Ba    s      0.200000     0.000000     0.600000     -1.450000  1.0000
    649  Ba    s      0.200000     0.000000     0.800000     -1.450000  1.0000
    650  Ba    s      0.200000     0.200000     0.000000     -1.450000  1.0000
    651  Ba    s      0.200000     0.200000     0.200000     -1.450000  1.0000
    652  Ba    s      0.200000     0.200000     0.400000     -1.450000  1.0000
    653  Ba    s      0.200000     0.200000     0.600000     -1.450000  1.0000
    654  Ba    s      0.200000     0.200000     0.800000     -1.450000  1.0000
    655  Ba    s      0.200000     0.400000     0.000000     -1.450000  1.0000
    656  Ba    s      0.200000     0.400000     0.200000     -1.450000  1.0000
    657  Ba    s      0.200000     0.400000     0.400000     -1.450000  1.0000
    658  Ba    s      0.200000     0.400000     0.600000     -1.450000  1.0000
    659  Ba    s      0.200000     0.400000     0.800000     -1.450000  1.0000
    660  Ba    s      0.200000     0.600000     0.000000     -1.450000  1.0000
    661  Ba    s      0.200000     0.600000     0.200000     -1.450000  1.0000
    662  Ba    s      0.200000     0.600000     0.400000     -1.450000  1.0000
    663  Ba    s      0.200000     0.600000     0.600000     -1.450000  1.0000
    664  Ba    s      0.200000     0.600000     0.800000     -1.450000  1.0000
    665  Ba    s      0.200000     0.800000     0.000000     -1.450000  1.0000
    666  Ba    s      0.200000     0.800000     0.200000     -1.450000  1.0000
    667  Ba    s      0.200000     0.800000     0.400000     -1.450000  1.0000
    668  Ba    s      0.200000     0.800000     0.600000     -1.450000  1.0000
    669  Ba    s      0.200000     0.800000     0.800000     -1.450000  1.0000
    670  Ba    s      0.400000     0.000000     0.000000     -1.450000  1.0000
    671  Ba    s      0.400000     0.000000     0.200000     -1.450000  1.0000
    672  Ba    s      0.400000     0.000000     0.400000     -1.450000  1.0000
    673  Ba    s      0.400000     0.000000     0.600000     -1.450000  1.0000
    674  Ba    s      0.400000     0.000000     0.800000     -1.450000  1.0000
    675  Ba    s      0.400000     0.200000     0.000000     -1.450000  1.0000
    676  Ba    s      0.400000     0.200000     0.200000     -1.450000  1.0000
    677  Ba    s      0.400000     0.200000     0.400000     -1.450000  1.0000
    678  Ba    s      0.400000     0.200000     0.600000     -1.450000  1.0000
    679  Ba    s      0.400000     0.200000     0.800000     -1.450000  1.0000
    680  Ba    s      0.400000     0.400000     0.000000     -1.450000  1.0000
    681  Ba    s      0.400000     0.400000     0.200000     -1.450000  1.0000
    682  Ba    s      0.400000     0.400000     0.400000     -1.450000  1.0000
    683  Ba    s      0.400000     0.400000     0.600000     -1.450000  1.0000
    684  Ba    s      0.400000     0.400000     0.800000     -1.450000  1.0000
    685  Ba    s      0.400000     0.600000     0.000000     -1.450000  1.0000
    686  Ba    s      0.400000     0.600000     0.200000     -1.450000  1.0000
    687  Ba    s      0.400000     0.600000     0.400000     -1.450000  1.0000
    688  Ba    s      0.400000     0.600000     0.600000     -1.450000  1.0000
    689  Ba    s      0.400000     0.600000     0.800000     -1.450000  1.0000
    690  Ba    s      0.400000     0.800000     0.000000     -1.450000  1.0000
    691  Ba    s      0.400000     0.800000     0.200000     -1.450000  1.0000
    692  Ba    s      0.400000     0.800000     0.400000     -1.450000  1.0000
    693  Ba    s      0.400000     0.800000     0.600000     -1.450000  1.0000
    694  Ba    s      0.400000     0.800000     0.800000     -1.450000  1.0000
    695  Ba    s      0.600000     0.000000     0.000000     -1.450000  1.0000
    696  Ba    s      0.600000     0.000000     0.200000     -1.450000  1.0000
    697  Ba    s      0.600000     0.000000     0.400000     -1.450000  1.0000
    698  Ba    s      0.600000     0.000000     0.600000     -1.450000  1.0000
    699  Ba    s      0.600000     0.000000     0.800000     -1.450000  1.0000
    700  Ba    s      0.600000     0.200000     0.000000     -1.450000  1.0000
    701  Ba    s      0.600000     0.200000     0.200000     -1.450000  1.0000
    702  Ba    s      0.600000     0.200000     0.400000     -1.450000  1.0000
    703  Ba    s      0.600000     0.200000     0.600000     -1.450000  1.0000
    704  Ba    s      0.600000     0.200000     0.800000     -1.450000  1.0000
    705  Ba    s      0.600000     0.400000     0.000000     -1.450000  1.0000
    706  Ba    s      0.600000     0.400000     0.200000     -1.450000  1.0000
    707  Ba    s      0.600000     0.400000     0.400000     -1.450000  1.0000
    708  Ba    s      0.600000     0.400000     0.600000     -1.450000  1.0000
    709  Ba    s      0.600000     0.400000     0.800000     -1.450000  1.0000
    710  Ba    s      0.600000     0.600000     0.000000     -1.450000  1.0000
    711  Ba    s      0.600000     0.600000     0.200000     -1.450000  1.0000
    712  Ba    s      0.600000     0.600000     0.400000     -1.450000  1.0000
    713  Ba    s      0.600000     0.600000     0.600000     -1.450000  1.0000
    714  Ba    s      0.600000     0.600000     0.800000     -1.450000  1.0000
    715  Ba    s      0.600000     0.800000     0.000000     -1.450000  1.0000
    716  Ba    s      0.600000     0.800000     0.200000     -1.450000  1.0000
    717  Ba    s      0.600000     0.800000     0.400000     -1.450000  1.0000
    718  Ba    s      0.600000     0.800000     0.600000     -1.450000  1.0000
    719  Ba    s      0.600000     0.800000     0.800000     -1.450000  1.0000
    720  Ba    s      0.800000     0.000000     0.000000     -1.450000  1.0000
    721  Ba    s      0.800000     0.000000     0.200000     -1.450000  1.0000
    722  Ba    s      0.800000     0.000000     0.400000     -1.450000  1.0000
    723  Ba    s      0.800000     0.000000     0.600000     -1.450000  1.0000
    724  Ba    s      0.800000     0.000000     0.800000     -1.450000  1.0000
    725  Ba    s      0.800000     0.200000     0.000000     -1.450000  1.0000
    726  Ba    s      0.800000     0.200000     0.200000     -1.450000  1.0000
    727  Ba    s      0.800000     0.200000     0.400000     -1.450000  1.0000
    728  Ba    s      0.800000     0.200000     0.600000     -1.450000  1.0000
    729  Ba    s      0.800000     0.200000     0.800000     -1.450000  1.0000
    730  Ba    s      0.800000     0.400000     0.000000     -1.450000  1.0000
    731  Ba    s      0.800000     0.400000     0.200000     -1.450000  1.0000
    732  Ba    s      0.800000     0.400000     0.400000     -1.450000  1.0000
    733  Ba    s      0.800000     0.400000     0.600000     -1.450000  1.0000
    734  Ba    s      0.800000     0.400000     0.800000     -1.450000  1.0000
    735  Ba    s      0.800000     0.600000     0.000000     -1.450000  1.0000
    736  Ba    s      0.800000     0.600000     0.200000     -1.450000  1.0000
    737  Ba    s      0.800000     0.600000     0.400000     -1.450000  1.0000
    738  Ba    s      0.800000     0.600000     0.600000     -1.450000  1.0000
    739  Ba    s      0.800000     0.600000     0.800000     -1.450000  1.0000
    740  Ba    s      0.800000     0.800000     0.000000     -1.450000  1.0000
    741  Ba    s      0.800000     0.800000     0.200000     -1.450000  1.0000
    742  Ba    s      0.800000     0.800000     0.400000     -1.450000  1.0000
    743  Ba    s      0.800000     0.800000     0.600000     -1.450000  1.0000
    744  Ba    s      0.800000     0.800000     0.800000     -1.450000  1.0000
    745  O     s      0.100000     0.100000     0.000000     -2.472000  1.0000
    746  O     s      0.100000     0.100000     0.200000     -2.472000  1.0000
    747  O     s      0.100000     0.100000     0.400000     -2.472000  1.0000
    748  O     s      0.100000     0.100000     0.600000     -2.472000  1.0000
    749  O     s      0.100000     0.100000     0.800000     -2.472000  1.0000
    750  O     s      0.100000     0.300000     0.000000     -2.472000  1.0000
    751  O     s      0.100000     0.300000     0.200000     -2.472000  1.0000
    752  O     s      0.100000     0.300000     0.400000     -2.472000  1.0000
    753  O     s      0.100000     0.300000     0.600000     -2.472000  1.0000
    754  O     s      0.100000     0.300000     0.800000     -2.472000  1.0000
    755  O     s      0.100000     0.500000     0.000000     -2.472000  1.0000
    756  O     s      0.100000     0.500000     0.200000     -2.472000  1.0000
    757  O     s      0.100000     0.500000     0.400000     -2.472000  1.0000
    758  O     s      0.100000     0.500000     0.600000     -2.472000  1.0000
    759  O     s      0.100000     0.500000     0.800000     -2.472000  1.0000
    760  O     s      0.100000     0.700000     0.000000     -2.472000  1.0000
    761  O     s      0.100000     0.700000     0.200000     -2.472000  1.0000
    762  O     s      0.100000     0.700000     0.400000     -2.472000  1.0000
    763  O     s      0.100000     0.700000     0.600000     -2.472000  1.0000
    764  O     s      0.100000     0.700000     0.800000     -2.472000  1.0000
    765  O     s      0.100000     0.900000     0.000000     -2.472000  1.0000
    766  O     s      0.100000     0.900000     0.200000     -2.472000  1.0000
    767  O     s      0.100000     0.900000     0.400000     -2.472000  1.0000
    768  O     s      0.100000     0.900000     0.600000     -2.472000  1.0000
    769  O     s      0.100000     0.900000     0.800000     -2.472000  1.0000
    770  O     s      0.300000     0.100000     0.000000     -2.472000  1.0000
    771  O     s      0.300000     0.100000     0.200000     -2.472000  1.0000
    772  O     s      0.300000     0.100000     0.400000     -2.472000  1.0000
    773  O     s      0.300000     0.100000     0.600000     -2.472000  1.0000
    774  O     s      0.300000     0.100000     0.800000     -2.472000  1.0000
    775  O     s      0.300000     0.300000     0.000000     -2.472000  1.0000
    776  O     s      0.300000     0.300000     0.200000     -2.472000  1.0000
    777  O     s      0.300000     0.300000     0.400000     -2.472000  1.0000
    778  O     s      0.300000     0.300000     0.600000     -2.472000  1.0000
    779  O     s      0.300000     0.300000     0.800000     -2.472000  1.0000
    780  O     s      0.300000     0.500000     0.000000     -2.472000  1.0000
    781  O     s      0.300000     0.500000     0.200000     -2.472000  1.0000
    782  O     s      0.300000     0.500000     0.400000     -2.472000  1.0000
    783  O     s      0.300000     0.500000     0.600000     -2.472000  1.0000
    784  O     s      0.300000     0.500000     0.800000     -2.472000  1.0000
    785  O     s      0.300000     0.700000     0.000000     -2.472000  1.0000
    786  O     s      0.300000     0.700000     0.200000     -2.472000  1.0000
    787  O     s      0.300000     0.700000     0.400000     -2.472000  1.0000
    788  O     s      0.300000     0.700000     0.600000     -2.472000  1.0000
    789  O     s      0.300000     0.900000     0.000000     -2.472000  1.0000
    790  O     s      0.300000     0.900000     0.200000     -2.472000  1.0000
    791  O     s      0.300000     0.900000     0.400000     -2.472000  1.0000
    792  O     s      0.300000     0.900000     0.600000     -2.472000  1.0000
    793  O     s      0.300000     0.900000     0.800000     -2.472000  1.0000
    794  O     s      0.500000     0.100000     0.000000     -2.472000  1.0000
    795  O     s      0.500000     0.100000     0.200000     -2.472000  1.0000
    796  O     s      0.500000     0.100000     0.400000     -2.472000  1.0000
    797  O     s      0.500000     0.100000     0.600000     -2.472000  1.0000
    798  O     s      0.500000     0.100000     0.800000     -2.472000  1.0000
    799  O     s      0.500000     0.300000     0.000000     -2.472000  1.0000
    800  O     s      0.500000     0.300000     0.200000     -2.472000  1.0000
    801  O     s      0.500000     0.300000     0.400000     -2.472000  1.0000
    802  O     s      0.500000     0.300000     0.600000     -2.472000  1.0000
    803  O     s      0.500000     0.300000     0.800000     -2.472000  1.0000
    804  O     s      0.500000     0.500000     0.000000     -2.472000  1.0000
    805  O     s      0.500000     0.500000     0.200000     -2.472000  1.0000
    806  O     s      0.500000     0.500000     0.400000     -2.472000  1.0000
    807  O     s      0.500000     0.500000     0.600000     -2.472000  1.0000
    808  O     s      0.500000     0.500000     0.800000     -2.472000  1.0000
    809  O     s      0.500000     0.700000     0.000000     -2.472000  1.0000
    810  O     s      0.500000     0.700000     0.200000     -2.472000  1.0000
    811  O     s      0.500000     0.700000     0.400000     -2.472000  1.0000
    812  O     s      0.500000     0.700000     0.600000     -2.472000  1.0000
    813  O     s      0.500000     0.700000     0.800000     -2.472000  1.0000
    814  O     s      0.500000     0.900000     0.000000     -2.472000  1.0000
    815  O     s      0.500000     0.900000     0.200000     -2.472000  1.0000
    816  O     s      0.500000     0.900000     0.400000     -2.472000  1.0000
    817  O     s      0.500000     0.900000     0.600000     -2.472000  1.0000
    818  O     s      0.500000     0.900000     0.800000     -2.472000  1.0000
    819  O     s      0.700000     0.100000     0.000000     -2.472000  1.0000
    820  O     s      0.700000     0.100000     0.200000     -2.472000  1.0000
    821  O     s      0.700000     0.100000     0.400000     -2.472000  1.0000
    822  O     s      0.700000     0.100000     0.600000     -2.472000  1.0000
    823  O     s      0.700000     0.100000     0.800000     -2.472000  1.0000
    824  O     s      0.700000     0.300000     0.000000     -2.472000  1.0000
    825  O     s      0.700000     0.300000     0.200000     -2.472000  1.0000
    826  O     s      0.700000     0.300000     0.400000     -2.472000  1.0000
    827  O     s      0.700000     0.300000     0.600000     -2.472000  1.0000
    828  O     s      0.700000     0.300000     0.800000     -2.472000  1.0000
    829  O     s      0.700000     0.500000     0.000000     -2.472000  1.0000
    830  O     s      0.700000     0.500000     0.200000     -2.472000  1.0000
    831  O     s      0.700000     0.500000     0.400000     -2.472000  1.0000
    832  O     s      0.700000     0.500000     0.600000     -2.472000  1.0000
    833  O     s      0.700000     0.500000     0.800000     -2.472000  1.0000
    834  O     s      0.700000     0.700000     0.000000     -2.472000  1.0000
    835  O     s      0.700000     0.700000     0.200000     -2.472000  1.0000
    836  O     s      0.700000     0.700000     0.400000     -2.472000  1.0000
    837  O     s      0.700000     0.700000     0.600000     -2.472000  1.0000
    838  O     s      0.700000     0.700000     0.800000     -2.472000  1.0000
    839  O     s      0.700000     0.900000     0.000000     -2.472000  1.0000
    840  O     s      0.700000     0.900000     0.200000     -2.472000  1.0000
    841  O     s      0.700000     0.900000     0.400000     -2.472000  1.0000
    842  O     s      0.700000     0.900000     0.600000     -2.472000  1.0000
    843  O     s      0.700000     0.900000     0.800000     -2.472000  1.0000
    844  O     s      0.900000     0.100000     0.000000     -2.472000  1.0000
    845  O     s      0.900000     0.100000     0.200000     -2.472000  1.0000
    846  O     s      0.900000     0.100000     0.400000     -2.472000  1.0000
    847  O     s      0.900000     0.100000     0.600000     -2.472000  1.0000
    848  O     s      0.900000     0.100000     0.800000     -2.472000  1.0000
    849  O     s      0.900000     0.300000     0.000000     -2.472000  1.0000
    850  O     s      0.900000     0.300000     0.200000     -2.472000  1.0000
    851  O     s      0.900000     0.300000     0.400000     -2.472000  1.0000
    852  O     s      0.900000     0.300000     0.600000     -2.472000  1.0000
    853  O     s      0.900000     0.300000     0.800000     -2.472000  1.0000
    854  O     s      0.900000     0.500000     0.000000     -2.472000  1.0000
    855  O     s      0.900000     0.500000     0.200000     -2.472000  1.0000
    856  O     s      0.900000     0.500000     0.400000     -2.472000  1.0000
    857  O     s      0.900000     0.500000     0.600000     -2.472000  1.0000
    858  O     s      0.900000     0.500000     0.800000     -2.472000  1.0000
    859  O     s      0.900000     0.700000     0.000000     -2.472000  1.0000
    860  O     s      0.900000     0.700000     0.200000     -2.472000  1.0000
    861  O     s      0.900000     0.700000     0.400000     -2.472000  1.0000
    862  O     s      0.900000     0.700000     0.600000     -2.472000  1.0000
    863  O     s      0.900000     0.700000     0.800000     -2.472000  1.0000
    864  O     s      0.900000     0.900000     0.000000     -2.472000  1.0000
    865  O     s      0.900000     0.900000     0.200000     -2.472000  1.0000
    866  O     s      0.900000     0.900000     0.400000     -2.472000  1.0000
    867  O     s      0.900000     0.900000     0.600000     -2.472000  1.0000
    868  O     s      0.900000     0.900000     0.800000     -2.472000  1.0000
    869  O     s      0.000000     0.100000     0.100000     -2.472000  1.0000
    870  O     s      0.000000     0.100000     0.300000     -2.472000  1.0000
    871  O     s      0.000000     0.100000     0.500000     -2.472000  1.0000
    872  O     s      0.000000     0.100000     0.700000     -2.472000  1.0000
    873  O     s      0.000000     0.100000     0.900000     -2.472000  1.0000
    874  O     s      0.000000     0.300000     0.100000     -2.472000  1.0000
    875  O     s      0.000000     0.300000     0.300000     -2.472000  1.0000
    876  O     s      0.000000     0.300000     0.500000     -2.472000  1.0000
    877  O     s      0.000000     0.300000     0.700000     -2.472000  1.0000
    878  O     s      0.000000     0.300000     0.900000     -2.472000  1.0000
    879  O     s      0.000000     0.500000     0.100000     -2.472000  1.0000
    880  O     s      0.000000     0.500000     0.300000     -2.472000  1.0000
    881  O     s      0.000000     0.500000     0.500000     -2.472000  1.0000
    882  O     s      0.000000     0.500000     0.700000     -2.472000  1.0000
    883  O     s      0.000000     0.500000     0.900000     -2.472000  1.0000
    884  O     s      0.000000     0.700000     0.100000     -2.472000  1.0000
    885  O     s      0.000000     0.700000     0.300000     -2.472000  1.0000
    886  O     s      0.000000     0.700000     0.500000     -2.472000  1.0000
    887  O     s      0.000000     0.700000     0.700000     -2.472000  1.0000
    888  O     s      0.000000     0.700000     0.900000     -2.472000  1.0000
    889  O     s      0.000000     0.900000     0.100000     -2.472000  1.0000
    890  O     s      0.000000     0.900000     0.300000     -2.472000  1.0000
    891  O     s      0.000000     0.900000     0.500000     -2.472000  1.0000
    892  O     s      0.000000     0.900000     0.700000     -2.472000  1.0000
    893  O     s      0.000000     0.900000     0.900000     -2.472000  1.0000
    894  O     s      0.200000     0.100000     0.100000     -2.472000  1.0000
    895  O     s      0.200000     0.100000     0.300000     -2.472000  1.0000
    896  O     s      0.200000     0.100000     0.500000     -2.472000  1.0000
    897  O     s      0.200000     0.100000     0.700000     -2.472000  1.0000
    898  O     s      0.200000     0.100000     0.900000     -2.472000  1.0000
    899  O     s      0.200000     0.300000     0.100000     -2.472000  1.0000
    900  O     s      0.200000     0.300000     0.300000     -2.472000  1.0000
    901  O     s      0.200000     0.300000     0.500000     -2.472000  1.0000
    902  O     s      0.200000     0.300000     0.700000     -2.472000  1.0000
    903  O     s      0.200000     0.300000     0.900000     -2.472000  1.0000
    904  O     s      0.200000     0.500000     0.100000     -2.472000  1.0000
    905  O     s      0.200000     0.500000     0.300000     -2.472000  1.0000
    906  O     s      0.200000     0.500000     0.500000     -2.472000  1.0000
    907  O     s      0.200000     0.500000     0.700000     -2.472000  1.0000
    908  O     s      0.200000     0.500000     0.900000     -2.472000  1.0000
    909  O     s      0.200000     0.700000     0.100000     -2.472000  1.0000
    910  O     s      0.200000     0.700000     0.300000     -2.472000  1.0000
    911  O     s      0.200000     0.700000     0.500000     -2.472000  1.0000
    912  O     s      0.200000     0.700000     0.700000     -2.472000  1.0000
    913  O     s      0.200000     0.700000     0.900000     -2.472000  1.0000
    914  O     s      0.200000     0.900000     0.100000     -2.472000  1.0000
    915  O     s      0.200000     0.900000     0.300000     -2.472000  1.0000
    916  O     s      0.200000     0.900000     0.500000     -2.472000  1.0000
    917  O     s      0.200000     0.900000     0.700000     -2.472000  1.0000
    918  O     s      0.200000     0.900000     0.900000     -2.472000  1.0000
    919  O     s      0.400000     0.100000     0.100000     -2.472000  1.0000
    920  O     s      0.400000     0.100000     0.300000     -2.472000  1.0000
    921  O     s      0.400000     0.100000     0.500000     -2.472000  1.0000
    922  O     s      0.400000     0.100000     0.700000     -2.472000  1.0000
    923  O     s      0.400000     0.100000     0.900000     -2.472000  1.0000
    924  O     s      0.400000     0.300000     0.100000     -2.472000  1.0000
    925  O     s      0.400000     0.300000     0.300000     -2.472000  1.0000
    926  O     s      0.400000     0.300000     0.500000     -2.472000  1.0000
    927  O     s      0.400000     0.300000     0.700000     -2.472000  1.0000
    928  O     s      0.400000     0.300000     0.900000     -2.472000  1.0000
    929  O     s      0.400000     0.500000     0.100000     -2.472000  1.0000
    930  O     s      0.400000     0.500000     0.300000     -2.472000  1.0000
    931  O     s      0.400000     0.500000     0.500000     -2.472000  1.0000
    932  O     s      0.400000     0.500000     0.700000     -2.472000  1.0000
    933  O     s      0.400000     0.500000     0.900000     -2.472000  1.0000
    934  O     s      0.400000     0.700000     0.100000     -2.472000  1.0000
    935  O     s      0.400000     0.700000     0.300000     -2.472000  1.0000
    936  O     s      0.400000     0.700000     0.500000     -2.472000  1.0000
    937  O     s      0.400000     0.700000     0.700000     -2.472000  1.0000
    938  O     s      0.400000     0.700000     0.900000     -2.472000  1.0000
    939  O     s      0.400000     0.900000     0.100000     -2.472000  1.0000
    940  O     s      0.400000     0.900000     0.300000     -2.472000  1.0000
    941  O     s      0.400000     0.900000     0.500000     -2.472000  1.0000
    942  O     s      0.400000     0.900000     0.700000     -2.472000  1.0000
    943  O     s      0.400000     0.900000     0.900000     -2.472000  1.0000
    944  O     s      0.600000     0.100000     0.100000     -2.472000  1.0000
    945  O     s      0.600000     0.100000     0.300000     -2.472000  1.0000
    946  O     s      0.600000     0.100000     0.500000     -2.472000  1.0000
    947  O     s      0.600000     0.100000     0.700000     -2.472000  1.0000
    948  O     s      0.600000     0.100000     0.900000     -2.472000  1.0000
    949  O     s      0.600000     0.300000     0.100000     -2.472000  1.0000
    950  O     s      0.600000     0.300000     0.300000     -2.472000  1.0000
    951  O     s      0.600000     0.300000     0.500000     -2.472000  1.0000
    952  O     s      0.600000     0.300000     0.700000     -2.472000  1.0000
    953  O     s      0.600000     0.300000     0.900000     -2.472000  1.0000
    954  O     s      0.600000     0.500000     0.100000     -2.472000  1.0000
    955  O     s      0.600000     0.500000     0.300000     -2.472000  1.0000
    956  O     s      0.600000     0.500000     0.500000     -2.472000  1.0000
    957  O     s      0.600000     0.500000     0.700000     -2.472000  1.0000
    958  O     s      0.600000     0.500000     0.900000     -2.472000  1.0000
    959  O     s      0.600000     0.700000     0.100000     -2.472000  1.0000
    960  O     s      0.600000     0.700000     0.300000     -2.472000  1.0000
    961  O     s      0.600000     0.700000     0.500000     -2.472000  1.0000
    962  O     s      0.600000     0.700000     0.700000     -2.472000  1.0000
    963  O     s      0.600000     0.700000     0.900000     -2.472000  1.0000
    964  O     s      0.600000     0.900000     0.100000     -2.472000  1.0000
    965  O     s      0.600000     0.900000     0.300000     -2.472000  1.0000
    966  O     s      0.600000     0.900000     0.500000     -2.472000  1.0000
    967  O     s      0.600000     0.900000     0.700000     -2.472000  1.0000
    968  O     s      0.600000     0.900000     0.900000     -2.472000  1.0000
    969  O     s      0.800000     0.100000     0.100000     -2.472000  1.0000
    970  O     s      0.800000     0.100000     0.300000     -2.472000  1.0000
    971  O     s      0.800000     0.100000     0.500000     -2.472000  1.0000
    972  O     s      0.800000     0.100000     0.700000     -2.472000  1.0000
    973  O     s      0.800000     0.100000     0.900000     -2.472000  1.0000
    974  O     s      0.800000     0.300000     0.100000     -2.472000  1.0000
    975  O     s      0.800000     0.300000     0.300000     -2.472000  1.0000
    976  O     s      0.800000     0.300000     0.500000     -2.472000  1.0000
    977  O     s      0.800000     0.300000     0.700000     -2.472000  1.0000
    978  O     s      0.800000     0.300000     0.900000     -2.472000  1.0000
    979  O     s      0.800000     0.500000     0.100000     -2.472000  1.0000
    980  O     s      0.800000     0.500000     0.300000     -2.472000  1.0000
    981  O     s      0.800000     0.500000     0.500000     -2.472000  1.0000
    982  O     s      0.800000     0.500000     0.700000     -2.472000  1.0000
    983  O     s      0.800000     0.500000     0.900000     -2.472000  1.0000
    984  O     s      0.800000     0.700000     0.100000     -2.472000  1.0000
    985  O     s      0.800000     0.700000     0.300000     -2.472000  1.0000
    986  O     s      0.800000     0.700000     0.500000     -2.472000  1.0000
    987  O     s      0.800000     0.700000     0.700000     -2.472000  1.0000
    988  O     s      0.800000     0.700000     0.900000     -2.472000  1.0000
    989  O     s      0.800000     0.900000     0.100000     -2.472000  1.0000
    990  O     s      0.800000     0.900000     0.300000     -2.472000  1.0000
    991  O     s      0.800000     0.900000     0.500000     -2.472000  1.0000
    992  O     s      0.800000     0.900000     0.700000     -2.472000  1.0000
    993  O     s      0.800000     0.900000     0.900000     -2.472000  1.0000
    994  O     s      0.100000     0.000000     0.100000     -2.472000  1.0000
    995  O     s      0.100000     0.000000     0.300000     -2.472000  1.0000
    996  O     s      0.100000     0.000000     0.500000     -2.472000  1.0000
    997  O     s      0.100000     0.000000     0.700000     -2.472000  1.0000
    998  O     s      0.100000     0.000000     0.900000     -2.472000  1.0000
    999  O     s      0.100000     0.200000     0.100000     -2.472000  1.0000
   1000  O     s      0.100000     0.200000     0.300000     -2.472000  1.0000
   1001  O     s      0.100000     0.200000     0.500000     -2.472000  1.0000
   1002  O     s      0.100000     0.200000     0.700000     -2.472000  1.0000
   1003  O     s      0.100000     0.200000     0.900000     -2.472000  1.0000
   1004  O     s      0.100000     0.400000     0.100000     -2.472000  1.0000
   1005  O     s      0.100000     0.400000     0.300000     -2.472000  1.0000
   1006  O     s      0.100000     0.400000     0.500000     -2.472000  1.0000
   1007  O     s      0.100000     0.400000     0.700000     -2.472000  1.0000
   1008  O     s      0.100000     0.400000     0.900000     -2.472000  1.0000
   1009  O     s      0.100000     0.600000     0.100000     -2.472000  1.0000
   1010  O     s      0.100000     0.600000     0.300000     -2.472000  1.0000
   1011  O     s      0.100000     0.600000     0.500000     -2.472000  1.0000
   1012  O     s      0.100000     0.600000     0.700000     -2.472000  1.0000
   1013  O     s      0.100000     0.600000     0.900000     -2.472000  1.0000
   1014  O     s      0.100000     0.800000     0.100000     -2.472000  1.0000
   1015  O     s      0.100000     0.800000     0.300000     -2.472000  1.0000
   1016  O     s      0.100000     0.800000     0.500000     -2.472000  1.0000
   1017  O     s      0.100000     0.800000     0.700000     -2.472000  1.0000
   1018  O     s      0.100000     0.800000     0.900000     -2.472000  1.0000
   1019  O     s      0.300000     0.000000     0.100000     -2.472000  1.0000
   1020  O     s      0.300000     0.000000     0.300000     -2.472000  1.0000
   1021  O     s      0.300000     0.000000     0.500000     -2.472000  1.0000
   1022  O     s      0.300000     0.000000     0.700000     -2.472000  1.0000
   1023  O     s      0.300000     0.000000     0.900000     -2.472000  1.0000
   1024  O     s      0.300000     0.200000     0.100000     -2.472000  1.0000
   1025  O     s      0.300000     0.200000     0.300000     -2.472000  1.0000
   1026  O     s      0.300000     0.200000     0.500000     -2.472000  1.0000
   1027  O     s      0.300000     0.200000     0.700000     -2.472000  1.0000
   1028  O     s      0.300000     0.200000     0.900000     -2.472000  1.0000
   1029  O     s      0.300000     0.400000     0.100000     -2.472000  1.0000
   1030  O     s      0.300000     0.400000     0.300000     -2.472000  1.0000
   1031  O     s      0.300000     0.400000     0.500000     -2.472000  1.0000
   1032  O     s      0.300000     0.400000     0.700000     -2.472000  1.0000
   1033  O     s      0.300000     0.400000     0.900000     -2.472000  1.0000
   1034  O     s      0.300000     0.600000     0.100000     -2.472000  1.0000
   1035  O     s      0.300000     0.600000     0.300000     -2.472000  1.0000
   1036  O     s      0.300000     0.600000     0.500000     -2.472000  1.0000
   1037  O     s      0.300000     0.600000     0.700000     -2.472000  1.0000
   1038  O     s      0.300000     0.600000     0.900000     -2.472000  1.0000
   1039  O     s      0.300000     0.800000     0.100000     -2.472000  1.0000
   1040  O     s      0.300000     0.800000     0.300000     -2.472000  1.0000
   1041  O     s      0.300000     0.800000     0.500000     -2.472000  1.0000
   1042  O     s      0.300000     0.800000     0.700000     -2.472000  1.0000
   1043  O     s      0.300000     0.800000     0.900000     -2.472000  1.0000
   1044  O     s      0.500000     0.000000     0.100000     -2.472000  1.0000
   1045  O     s      0.500000     0.000000     0.300000     -2.472000  1.0000
   1046  O     s      0.500000     0.000000     0.500000     -2.472000  1.0000
   1047  O     s      0.500000     0.000000     0.700000     -2.472000  1.0000
   1048  O     s      0.500000     0.000000     0.900000     -2.472000  1.0000
   1049  O     s      0.500000     0.200000     0.100000     -2.472000  1.0000
   1050  O     s      0.500000     0.200000     0.300000     -2.472000  1.0000
   1051  O     s      0.500000     0.200000     0.500000     -2.472000  1.0000
   1052  O     s      0.500000     0.200000     0.700000     -2.472000  1.0000
   1053  O     s      0.500000     0.200000     0.900000     -2.472000  1.0000
   1054  O     s      0.500000     0.400000     0.100000     -2.472000  1.0000
   1055  O     s      0.500000     0.400000     0.300000     -2.472000  1.0000
   1056  O     s      0.500000     0.400000     0.500000     -2.472000  1.0000
   1057  O     s      0.500000     0.400000     0.700000     -2.472000  1.0000
   1058  O     s      0.500000     0.400000     0.900000     -2.472000  1.0000
   1059  O     s      0.500000     0.600000     0.100000     -2.472000  1.0000
   1060  O     s      0.500000     0.600000     0.300000     -2.472000  1.0000
   1061  O     s      0.500000     0.600000     0.500000     -2.472000  1.0000
   1062  O     s      0.500000     0.600000     0.700000     -2.472000  1.0000
   1063  O     s      0.500000     0.600000     0.900000     -2.472000  1.0000
   1064  O     s      0.500000     0.800000     0.100000     -2.472000  1.0000
   1065  O     s      0.500000     0.800000     0.300000     -2.472000  1.0000
   1066  O     s      0.500000     0.800000     0.500000     -2.472000  1.0000
   1067  O     s      0.500000     0.800000     0.700000     -2.472000  1.0000
   1068  O     s      0.500000     0.800000     0.900000     -2.472000  1.0000
   1069  O     s      0.700000     0.000000     0.100000     -2.472000  1.0000
   1070  O     s      0.700000     0.000000     0.300000     -2.472000  1.0000
   1071  O     s      0.700000     0.000000     0.500000     -2.472000  1.0000
   1072  O     s      0.700000     0.000000     0.700000     -2.472000  1.0000
   1073  O     s      0.700000     0.000000     0.900000     -2.472000  1.0000
   1074  O     s      0.700000     0.200000     0.100000     -2.472000  1.0000
   1075  O     s      0.700000     0.200000     0.300000     -2.472000  1.0000
   1076  O     s      0.700000     0.200000     0.500000     -2.472000  1.0000
   1077  O     s      0.700000     0.200000     0.700000     -2.472000  1.0000
   1078  O     s      0.700000     0.200000     0.900000     -2.472000  1.0000
   1079  O     s      0.700000     0.400000     0.100000     -2.472000  1.0000
   1080  O     s      0.700000     0.400000     0.300000     -2.472000  1.0000
   1081  O     s      0.700000     0.400000     0.500000     -2.472000  1.0000
   1082  O     s      0.700000     0.400000     0.700000     -2.472000  1.0000
   1083  O     s      0.700000     0.400000     0.900000     -2.472000  1.0000
   1084  O     s      0.700000     0.600000     0.100000     -2.472000  1.0000
   1085  O     s      0.700000     0.600000     0.300000     -2.472000  1.0000
   1086  O     s      0.700000     0.600000     0.500000     -2.472000  1.0000
   1087  O     s      0.700000     0.600000     0.700000     -2.472000  1.0000
   1088  O     s      0.700000     0.600000     0.900000     -2.472000  1.0000
   1089  O     s      0.700000     0.800000     0.100000     -2.472000  1.0000
   1090  O     s      0.700000     0.800000     0.300000     -2.472000  1.0000
   1091  O     s      0.700000     0.800000     0.500000     -2.472000  1.0000
   1092  O     s      0.700000     0.800000     0.700000     -2.472000  1.0000
   1093  O     s      0.700000     0.800000     0.900000     -2.472000  1.0000
   1094  O     s      0.900000     0.000000     0.100000     -2.472000  1.0000
   1095  O     s      0.900000     0.000000     0.300000     -2.472000  1.0000
   1096  O     s      0.900000     0.000000     0.500000     -2.472000  1.0000
   1097  O     s      0.900000     0.000000     0.700000     -2.472000  1.0000
   1098  O     s      0.900000     0.000000     0.900000     -2.472000  1.0000
   1099  O     s      0.900000     0.200000     0.100000     -2.472000  1.0000
   1100  O     s      0.900000     0.200000     0.300000     -2.472000  1.0000
   1101  O     s      0.900000     0.200000     0.500000     -2.472000  1.0000
   1102  O     s      0.900000     0.200000     0.700000     -2.472000  1.0000
   1103  O     s      0.900000     0.200000     0.900000     -2.472000  1.0000
   1104  O     s      0.900000     0.400000     0.100000     -2.472000  1.0000
   1105  O     s      0.900000     0.400000     0.300000     -2.472000  1.0000
   1106  O     s      0.900000     0.400000     0.500000     -2.472000  1.0000
   1107  O     s      0.900000     0.400000     0.700000     -2.472000  1.0000
   1108  O     s      0.900000     0.400000     0.900000     -2.472000  1.0000
   1109  O     s      0.900000     0.600000     0.100000     -2.472000  1.0000
   1110  O     s      0.900000     0.600000     0.300000     -2.472000  1.0000
   1111  O     s      0.900000     0.600000     0.500000     -2.472000  1.0000
   1112  O     s      0.900000     0.600000     0.700000     -2.472000  1.0000
   1113  O     s      0.900000     0.600000     0.900000     -2.472000  1.0000
   1114  O     s      0.900000     0.800000     0.100000     -2.472000  1.0000
   1115  O     s      0.900000     0.800000     0.300000     -2.472000  1.0000
   1116  O     s      0.900000     0.800000     0.500000     -2.472000  1.0000
   1117  O     s      0.900000     0.800000     0.700000     -2.472000  1.0000
   1118  O     s      0.900000     0.800000     0.900000     -2.472000  1.0000
--------------------------------------------------------------------------------



 Program terminated by processor     0 in           setup

