********************************************************************************
*                       GENERAL UTILITY LATTICE PROGRAM                        *
*                                 Julian Gale                                  *
*                      Nanochemistry Research Institute                        *
*                           Department of Chemistry                            *
*                    Curtin University, Western Australia                      *
********************************************************************************
* Version = 4.0.3 * Last modified =  20th April 2012                           *
********************************************************************************

**** Warning - inter/intra/both/bond directive given on potential line ****
**** but the molecule directive is currently inactive                  ****
*  optimise     - perform optimisation run                                     *
*  conp         - constant pressure calculation                                *
*  nosymmetry   - turn off symmetry after initial structure generation         *
*  full         - generate full unit cell when symmetry is removed             *
*  distance     - calculate distances                                          *
********************************************************************************
* BaSrmix                                                                      *
********************************************************************************


  Job Started  at 18:15.49 29th November   2018                               

  Number of CPUs =     1

  Host name      = node143.iceberg.shef.ac.uk              


  Total number of configurations input =   1

********************************************************************************
*  Input for Configuration =   1                                               *
********************************************************************************

  Formula = Ba122Er6Ti122O375                                           

  Number of irreducible atoms/shells =    1122


  Total number atoms/shells =    1122

  Dimensionality = 3               :  Bulk   



  Cartesian lattice vectors (Angstroms) :

       20.031893    0.000000    0.000000
        0.000000   20.031897    0.000000
        0.000000    0.000000   20.031897

  Cell parameters (Angstroms/Degrees):

  a =      20.0319    alpha =  90.0000
  b =      20.0319    beta  =  90.0000
  c =      20.0319    gamma =  90.0000

  Initial cell volume =        8038.335872 Angs**3

  Temperature of configuration =  0.000     K 

  Pressure of configuration =         0.000 GPa 

  Fractional coordinates of asymmetric unit :

--------------------------------------------------------------------------------
   No.  Atomic       x           y          z         Charge      Occupancy
        Label      (Frac)      (Frac)     (Frac)        (e)         (Frac)  
--------------------------------------------------------------------------------
      1 Ba    c    0.000000    0.000000    0.000000     3.45000    1.000000    
      2 Ba    c    0.000000 *  0.000000 *  0.200000 *   3.45000    1.000000    
      3 Ba    c    0.000000 *  0.000000 *  0.400000 *   3.45000    1.000000    
      4 Ba    c    0.000000 *  0.000000 *  0.600000 *   3.45000    1.000000    
      5 Ba    c    0.000000 *  0.000000 *  0.800000 *   3.45000    1.000000    
      6 Ba    c    0.000000 *  0.200000 *  0.000000 *   3.45000    1.000000    
      7 Ba    c    0.000000 *  0.200000 *  0.200000 *   3.45000    1.000000    
      8 Er    c    0.000000 *  0.200000 *  0.400000 *   3.00000    1.000000    
      9 Ba    c    0.000000 *  0.200000 *  0.600000 *   3.45000    1.000000    
     10 Ba    c    0.000000 *  0.200000 *  0.800000 *   3.45000    1.000000    
     11 Ba    c    0.000000 *  0.400000 *  0.000000 *   3.45000    1.000000    
     12 Ba    c    0.000000 *  0.400000 *  0.200000 *   3.45000    1.000000    
     13 Ba    c    0.000000 *  0.400000 *  0.400000 *   3.45000    1.000000    
     14 Ba    c    0.000000 *  0.400000 *  0.600000 *   3.45000    1.000000    
     15 Ba    c    0.000000 *  0.400000 *  0.800000 *   3.45000    1.000000    
     16 Ba    c    0.000000 *  0.600000 *  0.000000 *   3.45000    1.000000    
     17 Ba    c    0.000000 *  0.600000 *  0.200000 *   3.45000    1.000000    
     18 Ba    c    0.000000 *  0.600000 *  0.400000 *   3.45000    1.000000    
     19 Ba    c    0.000000 *  0.600000 *  0.600000 *   3.45000    1.000000    
     20 Ba    c    0.000000 *  0.600000 *  0.800000 *   3.45000    1.000000    
     21 Ba    c    0.000000 *  0.800000 *  0.000000 *   3.45000    1.000000    
     22 Ba    c    0.000000 *  0.800000 *  0.200000 *   3.45000    1.000000    
     23 Ba    c    0.000000 *  0.800000 *  0.400000 *   3.45000    1.000000    
     24 Ba    c    0.000000 *  0.800000 *  0.600000 *   3.45000    1.000000    
     25 Ba    c    0.000000 *  0.800000 *  0.800000 *   3.45000    1.000000    
     26 Ba    c    0.200000 *  0.000000 *  0.000000 *   3.45000    1.000000    
     27 Ba    c    0.200000 *  0.000000 *  0.200000 *   3.45000    1.000000    
     28 Ba    c    0.200000 *  0.000000 *  0.400000 *   3.45000    1.000000    
     29 Ba    c    0.200000 *  0.000000 *  0.600000 *   3.45000    1.000000    
     30 Ba    c    0.200000 *  0.000000 *  0.800000 *   3.45000    1.000000    
     31 Ba    c    0.200000 *  0.200000 *  0.000000 *   3.45000    1.000000    
     32 Ba    c    0.200000 *  0.200000 *  0.200000 *   3.45000    1.000000    
     33 Ba    c    0.200000 *  0.200000 *  0.400000 *   3.45000    1.000000    
     34 Ba    c    0.200000 *  0.200000 *  0.600000 *   3.45000    1.000000    
     35 Ba    c    0.200000 *  0.200000 *  0.800000 *   3.45000    1.000000    
     36 Ba    c    0.200000 *  0.400000 *  0.000000 *   3.45000    1.000000    
     37 Ba    c    0.200000 *  0.400000 *  0.200000 *   3.45000    1.000000    
     38 Ba    c    0.200000 *  0.400000 *  0.400000 *   3.45000    1.000000    
     39 Ba    c    0.200000 *  0.400000 *  0.600000 *   3.45000    1.000000    
     40 Ba    c    0.200000 *  0.400000 *  0.800000 *   3.45000    1.000000    
     41 Ba    c    0.200000 *  0.600000 *  0.000000 *   3.45000    1.000000    
     42 Ba    c    0.200000 *  0.600000 *  0.200000 *   3.45000    1.000000    
     43 Ba    c    0.200000 *  0.600000 *  0.400000 *   3.45000    1.000000    
     44 Ba    c    0.200000 *  0.600000 *  0.600000 *   3.45000    1.000000    
     45 Ba    c    0.200000 *  0.600000 *  0.800000 *   3.45000    1.000000    
     46 Ba    c    0.200000 *  0.800000 *  0.000000 *   3.45000    1.000000    
     47 Ba    c    0.200000 *  0.800000 *  0.200000 *   3.45000    1.000000    
     48 Ba    c    0.200000 *  0.800000 *  0.400000 *   3.45000    1.000000    
     49 Ba    c    0.200000 *  0.800000 *  0.600000 *   3.45000    1.000000    
     50 Ba    c    0.200000 *  0.800000 *  0.800000 *   3.45000    1.000000    
     51 Ba    c    0.400000 *  0.000000 *  0.000000 *   3.45000    1.000000    
     52 Ba    c    0.400000 *  0.000000 *  0.200000 *   3.45000    1.000000    
     53 Ba    c    0.400000 *  0.000000 *  0.400000 *   3.45000    1.000000    
     54 Ba    c    0.400000 *  0.000000 *  0.600000 *   3.45000    1.000000    
     55 Ba    c    0.400000 *  0.000000 *  0.800000 *   3.45000    1.000000    
     56 Ba    c    0.400000 *  0.200000 *  0.000000 *   3.45000    1.000000    
     57 Ba    c    0.400000 *  0.200000 *  0.200000 *   3.45000    1.000000    
     58 Ba    c    0.400000 *  0.200000 *  0.400000 *   3.45000    1.000000    
     59 Ba    c    0.400000 *  0.200000 *  0.600000 *   3.45000    1.000000    
     60 Ba    c    0.400000 *  0.200000 *  0.800000 *   3.45000    1.000000    
     61 Ba    c    0.400000 *  0.400000 *  0.000000 *   3.45000    1.000000    
     62 Ba    c    0.400000 *  0.400000 *  0.200000 *   3.45000    1.000000    
     63 Ba    c    0.400000 *  0.400000 *  0.400000 *   3.45000    1.000000    
     64 Ba    c    0.400000 *  0.400000 *  0.600000 *   3.45000    1.000000    
     65 Ba    c    0.400000 *  0.400000 *  0.800000 *   3.45000    1.000000    
     66 Ba    c    0.400000 *  0.600000 *  0.000000 *   3.45000    1.000000    
     67 Er    c    0.400000 *  0.600000 *  0.200000 *   3.00000    1.000000    
     68 Ba    c    0.400000 *  0.600000 *  0.400000 *   3.45000    1.000000    
     69 Ba    c    0.400000 *  0.600000 *  0.600000 *   3.45000    1.000000    
     70 Ba    c    0.400000 *  0.600000 *  0.800000 *   3.45000    1.000000    
     71 Ba    c    0.400000 *  0.800000 *  0.000000 *   3.45000    1.000000    
     72 Ba    c    0.400000 *  0.800000 *  0.200000 *   3.45000    1.000000    
     73 Ba    c    0.400000 *  0.800000 *  0.400000 *   3.45000    1.000000    
     74 Ba    c    0.400000 *  0.800000 *  0.600000 *   3.45000    1.000000    
     75 Ba    c    0.400000 *  0.800000 *  0.800000 *   3.45000    1.000000    
     76 Ba    c    0.600000 *  0.000000 *  0.000000 *   3.45000    1.000000    
     77 Ba    c    0.600000 *  0.000000 *  0.200000 *   3.45000    1.000000    
     78 Ba    c    0.600000 *  0.000000 *  0.400000 *   3.45000    1.000000    
     79 Ba    c    0.600000 *  0.000000 *  0.600000 *   3.45000    1.000000    
     80 Ba    c    0.600000 *  0.000000 *  0.800000 *   3.45000    1.000000    
     81 Ba    c    0.600000 *  0.200000 *  0.000000 *   3.45000    1.000000    
     82 Ba    c    0.600000 *  0.200000 *  0.200000 *   3.45000    1.000000    
     83 Ba    c    0.600000 *  0.200000 *  0.400000 *   3.45000    1.000000    
     84 Ba    c    0.600000 *  0.200000 *  0.600000 *   3.45000    1.000000    
     85 Ba    c    0.600000 *  0.200000 *  0.800000 *   3.45000    1.000000    
     86 Ba    c    0.600000 *  0.400000 *  0.000000 *   3.45000    1.000000    
     87 Ba    c    0.600000 *  0.400000 *  0.200000 *   3.45000    1.000000    
     88 Ba    c    0.600000 *  0.400000 *  0.400000 *   3.45000    1.000000    
     89 Ba    c    0.600000 *  0.400000 *  0.600000 *   3.45000    1.000000    
     90 Ba    c    0.600000 *  0.400000 *  0.800000 *   3.45000    1.000000    
     91 Ba    c    0.600000 *  0.600000 *  0.000000 *   3.45000    1.000000    
     92 Ba    c    0.600000 *  0.600000 *  0.200000 *   3.45000    1.000000    
     93 Ba    c    0.600000 *  0.600000 *  0.400000 *   3.45000    1.000000    
     94 Ba    c    0.600000 *  0.600000 *  0.600000 *   3.45000    1.000000    
     95 Ba    c    0.600000 *  0.600000 *  0.800000 *   3.45000    1.000000    
     96 Ba    c    0.600000 *  0.800000 *  0.000000 *   3.45000    1.000000    
     97 Ba    c    0.600000 *  0.800000 *  0.200000 *   3.45000    1.000000    
     98 Ba    c    0.600000 *  0.800000 *  0.400000 *   3.45000    1.000000    
     99 Ba    c    0.600000 *  0.800000 *  0.600000 *   3.45000    1.000000    
    100 Ba    c    0.600000 *  0.800000 *  0.800000 *   3.45000    1.000000    
    101 Ba    c    0.800000 *  0.000000 *  0.000000 *   3.45000    1.000000    
    102 Ba    c    0.800000 *  0.000000 *  0.200000 *   3.45000    1.000000    
    103 Ba    c    0.800000 *  0.000000 *  0.400000 *   3.45000    1.000000    
    104 Ba    c    0.800000 *  0.000000 *  0.600000 *   3.45000    1.000000    
    105 Ba    c    0.800000 *  0.000000 *  0.800000 *   3.45000    1.000000    
    106 Ba    c    0.800000 *  0.200000 *  0.000000 *   3.45000    1.000000    
    107 Ba    c    0.800000 *  0.200000 *  0.200000 *   3.45000    1.000000    
    108 Ba    c    0.800000 *  0.200000 *  0.400000 *   3.45000    1.000000    
    109 Ba    c    0.800000 *  0.200000 *  0.600000 *   3.45000    1.000000    
    110 Ba    c    0.800000 *  0.200000 *  0.800000 *   3.45000    1.000000    
    111 Ba    c    0.800000 *  0.400000 *  0.000000 *   3.45000    1.000000    
    112 Ba    c    0.800000 *  0.400000 *  0.200000 *   3.45000    1.000000    
    113 Ba    c    0.800000 *  0.400000 *  0.400000 *   3.45000    1.000000    
    114 Ba    c    0.800000 *  0.400000 *  0.600000 *   3.45000    1.000000    
    115 Ba    c    0.800000 *  0.400000 *  0.800000 *   3.45000    1.000000    
    116 Ba    c    0.800000 *  0.600000 *  0.000000 *   3.45000    1.000000    
    117 Ba    c    0.800000 *  0.600000 *  0.200000 *   3.45000    1.000000    
    118 Ba    c    0.800000 *  0.600000 *  0.400000 *   3.45000    1.000000    
    119 Ba    c    0.800000 *  0.600000 *  0.600000 *   3.45000    1.000000    
    120 Ba    c    0.800000 *  0.600000 *  0.800000 *   3.45000    1.000000    
    121 Ba    c    0.800000 *  0.800000 *  0.000000 *   3.45000    1.000000    
    122 Er    c    0.800000 *  0.800000 *  0.200000 *   3.00000    1.000000    
    123 Ba    c    0.800000 *  0.800000 *  0.400000 *   3.45000    1.000000    
    124 Ba    c    0.800000 *  0.800000 *  0.600000 *   3.45000    1.000000    
    125 Ba    c    0.800000 *  0.800000 *  0.800000 *   3.45000    1.000000    
    126 Ti    c    0.100000 *  0.100000 *  0.100000 *   4.00000    1.000000    
    127 Ti    c    0.100000 *  0.100000 *  0.300000 *   4.00000    1.000000    
    128 Ti    c    0.100000 *  0.100000 *  0.500000 *   4.00000    1.000000    
    129 Ti    c    0.100000 *  0.100000 *  0.700000 *   4.00000    1.000000    
    130 Ti    c    0.100000 *  0.100000 *  0.900000 *   4.00000    1.000000    
    131 Ti    c    0.100000 *  0.300000 *  0.100000 *   4.00000    1.000000    
    132 Ti    c    0.100000 *  0.300000 *  0.300000 *   4.00000    1.000000    
    133 Ti    c    0.100000 *  0.300000 *  0.500000 *   4.00000    1.000000    
    134 Ti    c    0.100000 *  0.300000 *  0.700000 *   4.00000    1.000000    
    135 Ti    c    0.100000 *  0.300000 *  0.900000 *   4.00000    1.000000    
    136 Ti    c    0.100000 *  0.500000 *  0.100000 *   4.00000    1.000000    
    137 Ti    c    0.100000 *  0.500000 *  0.300000 *   4.00000    1.000000    
    138 Ti    c    0.100000 *  0.500000 *  0.500000 *   4.00000    1.000000    
    139 Ti    c    0.100000 *  0.500000 *  0.700000 *   4.00000    1.000000    
    140 Ti    c    0.100000 *  0.500000 *  0.900000 *   4.00000    1.000000    
    141 Ti    c    0.100000 *  0.700000 *  0.100000 *   4.00000    1.000000    
    142 Ti    c    0.100000 *  0.700000 *  0.300000 *   4.00000    1.000000    
    143 Ti    c    0.100000 *  0.700000 *  0.500000 *   4.00000    1.000000    
    144 Ti    c    0.100000 *  0.700000 *  0.700000 *   4.00000    1.000000    
    145 Ti    c    0.100000 *  0.700000 *  0.900000 *   4.00000    1.000000    
    146 Ti    c    0.100000 *  0.900000 *  0.100000 *   4.00000    1.000000    
    147 Ti    c    0.100000 *  0.900000 *  0.300000 *   4.00000    1.000000    
    148 Ti    c    0.100000 *  0.900000 *  0.500000 *   4.00000    1.000000    
    149 Ti    c    0.100000 *  0.900000 *  0.700000 *   4.00000    1.000000    
    150 Ti    c    0.100000 *  0.900000 *  0.900000 *   4.00000    1.000000    
    151 Ti    c    0.300000 *  0.100000 *  0.100000 *   4.00000    1.000000    
    152 Ti    c    0.300000 *  0.100000 *  0.300000 *   4.00000    1.000000    
    153 Ti    c    0.300000 *  0.100000 *  0.500000 *   4.00000    1.000000    
    154 Ti    c    0.300000 *  0.100000 *  0.700000 *   4.00000    1.000000    
    155 Ti    c    0.300000 *  0.100000 *  0.900000 *   4.00000    1.000000    
    156 Ti    c    0.300000 *  0.300000 *  0.100000 *   4.00000    1.000000    
    157 Ti    c    0.300000 *  0.300000 *  0.300000 *   4.00000    1.000000    
    158 Ti    c    0.300000 *  0.300000 *  0.500000 *   4.00000    1.000000    
    159 Ti    c    0.300000 *  0.300000 *  0.700000 *   4.00000    1.000000    
    160 Ti    c    0.300000 *  0.300000 *  0.900000 *   4.00000    1.000000    
    161 Ti    c    0.300000 *  0.500000 *  0.100000 *   4.00000    1.000000    
    162 Ti    c    0.300000 *  0.500000 *  0.300000 *   4.00000    1.000000    
    163 Ti    c    0.300000 *  0.500000 *  0.500000 *   4.00000    1.000000    
    164 Ti    c    0.300000 *  0.500000 *  0.700000 *   4.00000    1.000000    
    165 Ti    c    0.300000 *  0.500000 *  0.900000 *   4.00000    1.000000    
    166 Ti    c    0.300000 *  0.700000 *  0.100000 *   4.00000    1.000000    
    167 Er    c    0.300000 *  0.700000 *  0.300000 *   3.00000    1.000000    
    168 Ti    c    0.300000 *  0.700000 *  0.500000 *   4.00000    1.000000    
    169 Ti    c    0.300000 *  0.700000 *  0.700000 *   4.00000    1.000000    
    170 Ti    c    0.300000 *  0.700000 *  0.900000 *   4.00000    1.000000    
    171 Ti    c    0.300000 *  0.900000 *  0.100000 *   4.00000    1.000000    
    172 Ti    c    0.300000 *  0.900000 *  0.300000 *   4.00000    1.000000    
    173 Ti    c    0.300000 *  0.900000 *  0.500000 *   4.00000    1.000000    
    174 Ti    c    0.300000 *  0.900000 *  0.700000 *   4.00000    1.000000    
    175 Ti    c    0.300000 *  0.900000 *  0.900000 *   4.00000    1.000000    
    176 Ti    c    0.500000 *  0.100000 *  0.100000 *   4.00000    1.000000    
    177 Ti    c    0.500000 *  0.100000 *  0.300000 *   4.00000    1.000000    
    178 Ti    c    0.500000 *  0.100000 *  0.500000 *   4.00000    1.000000    
    179 Ti    c    0.500000 *  0.100000 *  0.700000 *   4.00000    1.000000    
    180 Ti    c    0.500000 *  0.100000 *  0.900000 *   4.00000    1.000000    
    181 Ti    c    0.500000 *  0.300000 *  0.100000 *   4.00000    1.000000    
    182 Ti    c    0.500000 *  0.300000 *  0.300000 *   4.00000    1.000000    
    183 Ti    c    0.500000 *  0.300000 *  0.500000 *   4.00000    1.000000    
    184 Ti    c    0.500000 *  0.300000 *  0.700000 *   4.00000    1.000000    
    185 Ti    c    0.500000 *  0.300000 *  0.900000 *   4.00000    1.000000    
    186 Ti    c    0.500000 *  0.500000 *  0.100000 *   4.00000    1.000000    
    187 Ti    c    0.500000 *  0.500000 *  0.300000 *   4.00000    1.000000    
    188 Ti    c    0.500000 *  0.500000 *  0.500000 *   4.00000    1.000000    
    189 Ti    c    0.500000 *  0.500000 *  0.700000 *   4.00000    1.000000    
    190 Ti    c    0.500000 *  0.500000 *  0.900000 *   4.00000    1.000000    
    191 Ti    c    0.500000 *  0.700000 *  0.100000 *   4.00000    1.000000    
    192 Ti    c    0.500000 *  0.700000 *  0.300000 *   4.00000    1.000000    
    193 Ti    c    0.500000 *  0.700000 *  0.500000 *   4.00000    1.000000    
    194 Ti    c    0.500000 *  0.700000 *  0.700000 *   4.00000    1.000000    
    195 Ti    c    0.500000 *  0.700000 *  0.900000 *   4.00000    1.000000    
    196 Ti    c    0.500000 *  0.900000 *  0.100000 *   4.00000    1.000000    
    197 Ti    c    0.500000 *  0.900000 *  0.300000 *   4.00000    1.000000    
    198 Ti    c    0.500000 *  0.900000 *  0.500000 *   4.00000    1.000000    
    199 Ti    c    0.500000 *  0.900000 *  0.700000 *   4.00000    1.000000    
    200 Ti    c    0.500000 *  0.900000 *  0.900000 *   4.00000    1.000000    
    201 Ti    c    0.700000 *  0.100000 *  0.100000 *   4.00000    1.000000    
    202 Ti    c    0.700000 *  0.100000 *  0.300000 *   4.00000    1.000000    
    203 Ti    c    0.700000 *  0.100000 *  0.500000 *   4.00000    1.000000    
    204 Ti    c    0.700000 *  0.100000 *  0.700000 *   4.00000    1.000000    
    205 Ti    c    0.700000 *  0.100000 *  0.900000 *   4.00000    1.000000    
    206 Ti    c    0.700000 *  0.300000 *  0.100000 *   4.00000    1.000000    
    207 Er    c    0.700000 *  0.300000 *  0.300000 *   3.00000    1.000000    
    208 Ti    c    0.700000 *  0.300000 *  0.500000 *   4.00000    1.000000    
    209 Ti    c    0.700000 *  0.300000 *  0.700000 *   4.00000    1.000000    
    210 Ti    c    0.700000 *  0.300000 *  0.900000 *   4.00000    1.000000    
    211 Ti    c    0.700000 *  0.500000 *  0.100000 *   4.00000    1.000000    
    212 Ti    c    0.700000 *  0.500000 *  0.300000 *   4.00000    1.000000    
    213 Ti    c    0.700000 *  0.500000 *  0.500000 *   4.00000    1.000000    
    214 Ti    c    0.700000 *  0.500000 *  0.700000 *   4.00000    1.000000    
    215 Ti    c    0.700000 *  0.500000 *  0.900000 *   4.00000    1.000000    
    216 Ti    c    0.700000 *  0.700000 *  0.100000 *   4.00000    1.000000    
    217 Ti    c    0.700000 *  0.700000 *  0.300000 *   4.00000    1.000000    
    218 Ti    c    0.700000 *  0.700000 *  0.500000 *   4.00000    1.000000    
    219 Ti    c    0.700000 *  0.700000 *  0.700000 *   4.00000    1.000000    
    220 Ti    c    0.700000 *  0.700000 *  0.900000 *   4.00000    1.000000    
    221 Ti    c    0.700000 *  0.900000 *  0.100000 *   4.00000    1.000000    
    222 Ti    c    0.700000 *  0.900000 *  0.300000 *   4.00000    1.000000    
    223 Ti    c    0.700000 *  0.900000 *  0.500000 *   4.00000    1.000000    
    224 Ti    c    0.700000 *  0.900000 *  0.700000 *   4.00000    1.000000    
    225 Ti    c    0.700000 *  0.900000 *  0.900000 *   4.00000    1.000000    
    226 Ti    c    0.900000 *  0.100000 *  0.100000 *   4.00000    1.000000    
    227 Ti    c    0.900000 *  0.100000 *  0.300000 *   4.00000    1.000000    
    228 Ti    c    0.900000 *  0.100000 *  0.500000 *   4.00000    1.000000    
    229 Ti    c    0.900000 *  0.100000 *  0.700000 *   4.00000    1.000000    
    230 Ti    c    0.900000 *  0.100000 *  0.900000 *   4.00000    1.000000    
    231 Ti    c    0.900000 *  0.300000 *  0.100000 *   4.00000    1.000000    
    232 Ti    c    0.900000 *  0.300000 *  0.300000 *   4.00000    1.000000    
    233 Ti    c    0.900000 *  0.300000 *  0.500000 *   4.00000    1.000000    
    234 Ti    c    0.900000 *  0.300000 *  0.700000 *   4.00000    1.000000    
    235 Ti    c    0.900000 *  0.300000 *  0.900000 *   4.00000    1.000000    
    236 Er    c    0.900000 *  0.500000 *  0.100000 *   3.00000    1.000000    
    237 Ti    c    0.900000 *  0.500000 *  0.300000 *   4.00000    1.000000    
    238 Ti    c    0.900000 *  0.500000 *  0.500000 *   4.00000    1.000000    
    239 Ti    c    0.900000 *  0.500000 *  0.700000 *   4.00000    1.000000    
    240 Ti    c    0.900000 *  0.500000 *  0.900000 *   4.00000    1.000000    
    241 Ti    c    0.900000 *  0.700000 *  0.100000 *   4.00000    1.000000    
    242 Ti    c    0.900000 *  0.700000 *  0.300000 *   4.00000    1.000000    
    243 Ti    c    0.900000 *  0.700000 *  0.500000 *   4.00000    1.000000    
    244 Ti    c    0.900000 *  0.700000 *  0.700000 *   4.00000    1.000000    
    245 Ti    c    0.900000 *  0.700000 *  0.900000 *   4.00000    1.000000    
    246 Ti    c    0.900000 *  0.900000 *  0.100000 *   4.00000    1.000000    
    247 Ti    c    0.900000 *  0.900000 *  0.300000 *   4.00000    1.000000    
    248 Ti    c    0.900000 *  0.900000 *  0.500000 *   4.00000    1.000000    
    249 Ti    c    0.900000 *  0.900000 *  0.700000 *   4.00000    1.000000    
    250 Ti    c    0.900000 *  0.900000 *  0.900000 *   4.00000    1.000000    
    251 O     c    0.100000 *  0.100000 *  0.000000 *   0.47200    1.000000    
    252 O     c    0.100000 *  0.100000 *  0.200000 *   0.47200    1.000000    
    253 O     c    0.100000 *  0.100000 *  0.400000 *   0.47200    1.000000    
    254 O     c    0.100000 *  0.100000 *  0.600000 *   0.47200    1.000000    
    255 O     c    0.100000 *  0.100000 *  0.800000 *   0.47200    1.000000    
    256 O     c    0.100000 *  0.300000 *  0.000000 *   0.47200    1.000000    
    257 O     c    0.100000 *  0.300000 *  0.200000 *   0.47200    1.000000    
    258 O     c    0.100000 *  0.300000 *  0.400000 *   0.47200    1.000000    
    259 O     c    0.100000 *  0.300000 *  0.600000 *   0.47200    1.000000    
    260 O     c    0.100000 *  0.300000 *  0.800000 *   0.47200    1.000000    
    261 O     c    0.100000 *  0.500000 *  0.000000 *   0.47200    1.000000    
    262 O     c    0.100000 *  0.500000 *  0.200000 *   0.47200    1.000000    
    263 O     c    0.100000 *  0.500000 *  0.400000 *   0.47200    1.000000    
    264 O     c    0.100000 *  0.500000 *  0.600000 *   0.47200    1.000000    
    265 O     c    0.100000 *  0.500000 *  0.800000 *   0.47200    1.000000    
    266 O     c    0.100000 *  0.700000 *  0.000000 *   0.47200    1.000000    
    267 O     c    0.100000 *  0.700000 *  0.200000 *   0.47200    1.000000    
    268 O     c    0.100000 *  0.700000 *  0.400000 *   0.47200    1.000000    
    269 O     c    0.100000 *  0.700000 *  0.600000 *   0.47200    1.000000    
    270 O     c    0.100000 *  0.700000 *  0.800000 *   0.47200    1.000000    
    271 O     c    0.100000 *  0.900000 *  0.000000 *   0.47200    1.000000    
    272 O     c    0.100000 *  0.900000 *  0.200000 *   0.47200    1.000000    
    273 O     c    0.100000 *  0.900000 *  0.400000 *   0.47200    1.000000    
    274 O     c    0.100000 *  0.900000 *  0.600000 *   0.47200    1.000000    
    275 O     c    0.100000 *  0.900000 *  0.800000 *   0.47200    1.000000    
    276 O     c    0.300000 *  0.100000 *  0.000000 *   0.47200    1.000000    
    277 O     c    0.300000 *  0.100000 *  0.200000 *   0.47200    1.000000    
    278 O     c    0.300000 *  0.100000 *  0.400000 *   0.47200    1.000000    
    279 O     c    0.300000 *  0.100000 *  0.600000 *   0.47200    1.000000    
    280 O     c    0.300000 *  0.100000 *  0.800000 *   0.47200    1.000000    
    281 O     c    0.300000 *  0.300000 *  0.000000 *   0.47200    1.000000    
    282 O     c    0.300000 *  0.300000 *  0.200000 *   0.47200    1.000000    
    283 O     c    0.300000 *  0.300000 *  0.400000 *   0.47200    1.000000    
    284 O     c    0.300000 *  0.300000 *  0.600000 *   0.47200    1.000000    
    285 O     c    0.300000 *  0.300000 *  0.800000 *   0.47200    1.000000    
    286 O     c    0.300000 *  0.500000 *  0.000000 *   0.47200    1.000000    
    287 O     c    0.300000 *  0.500000 *  0.200000 *   0.47200    1.000000    
    288 O     c    0.300000 *  0.500000 *  0.400000 *   0.47200    1.000000    
    289 O     c    0.300000 *  0.500000 *  0.600000 *   0.47200    1.000000    
    290 O     c    0.300000 *  0.500000 *  0.800000 *   0.47200    1.000000    
    291 O     c    0.300000 *  0.700000 *  0.000000 *   0.47200    1.000000    
    292 O     c    0.300000 *  0.700000 *  0.200000 *   0.47200    1.000000    
    293 O     c    0.300000 *  0.700000 *  0.400000 *   0.47200    1.000000    
    294 O     c    0.300000 *  0.700000 *  0.600000 *   0.47200    1.000000    
    295 O     c    0.300000 *  0.700000 *  0.800000 *   0.47200    1.000000    
    296 O     c    0.300000 *  0.900000 *  0.000000 *   0.47200    1.000000    
    297 O     c    0.300000 *  0.900000 *  0.200000 *   0.47200    1.000000    
    298 O     c    0.300000 *  0.900000 *  0.400000 *   0.47200    1.000000    
    299 O     c    0.300000 *  0.900000 *  0.600000 *   0.47200    1.000000    
    300 O     c    0.300000 *  0.900000 *  0.800000 *   0.47200    1.000000    
    301 O     c    0.500000 *  0.100000 *  0.000000 *   0.47200    1.000000    
    302 O     c    0.500000 *  0.100000 *  0.200000 *   0.47200    1.000000    
    303 O     c    0.500000 *  0.100000 *  0.400000 *   0.47200    1.000000    
    304 O     c    0.500000 *  0.100000 *  0.600000 *   0.47200    1.000000    
    305 O     c    0.500000 *  0.100000 *  0.800000 *   0.47200    1.000000    
    306 O     c    0.500000 *  0.300000 *  0.000000 *   0.47200    1.000000    
    307 O     c    0.500000 *  0.300000 *  0.200000 *   0.47200    1.000000    
    308 O     c    0.500000 *  0.300000 *  0.400000 *   0.47200    1.000000    
    309 O     c    0.500000 *  0.300000 *  0.600000 *   0.47200    1.000000    
    310 O     c    0.500000 *  0.300000 *  0.800000 *   0.47200    1.000000    
    311 O     c    0.500000 *  0.500000 *  0.000000 *   0.47200    1.000000    
    312 O     c    0.500000 *  0.500000 *  0.200000 *   0.47200    1.000000    
    313 O     c    0.500000 *  0.500000 *  0.400000 *   0.47200    1.000000    
    314 O     c    0.500000 *  0.500000 *  0.600000 *   0.47200    1.000000    
    315 O     c    0.500000 *  0.500000 *  0.800000 *   0.47200    1.000000    
    316 O     c    0.500000 *  0.700000 *  0.000000 *   0.47200    1.000000    
    317 O     c    0.500000 *  0.700000 *  0.200000 *   0.47200    1.000000    
    318 O     c    0.500000 *  0.700000 *  0.400000 *   0.47200    1.000000    
    319 O     c    0.500000 *  0.700000 *  0.600000 *   0.47200    1.000000    
    320 O     c    0.500000 *  0.700000 *  0.800000 *   0.47200    1.000000    
    321 O     c    0.500000 *  0.900000 *  0.000000 *   0.47200    1.000000    
    322 O     c    0.500000 *  0.900000 *  0.200000 *   0.47200    1.000000    
    323 O     c    0.500000 *  0.900000 *  0.400000 *   0.47200    1.000000    
    324 O     c    0.500000 *  0.900000 *  0.600000 *   0.47200    1.000000    
    325 O     c    0.500000 *  0.900000 *  0.800000 *   0.47200    1.000000    
    326 O     c    0.700000 *  0.100000 *  0.000000 *   0.47200    1.000000    
    327 O     c    0.700000 *  0.100000 *  0.200000 *   0.47200    1.000000    
    328 O     c    0.700000 *  0.100000 *  0.400000 *   0.47200    1.000000    
    329 O     c    0.700000 *  0.100000 *  0.600000 *   0.47200    1.000000    
    330 O     c    0.700000 *  0.100000 *  0.800000 *   0.47200    1.000000    
    331 O     c    0.700000 *  0.300000 *  0.000000 *   0.47200    1.000000    
    332 O     c    0.700000 *  0.300000 *  0.200000 *   0.47200    1.000000    
    333 O     c    0.700000 *  0.300000 *  0.400000 *   0.47200    1.000000    
    334 O     c    0.700000 *  0.300000 *  0.600000 *   0.47200    1.000000    
    335 O     c    0.700000 *  0.300000 *  0.800000 *   0.47200    1.000000    
    336 O     c    0.700000 *  0.500000 *  0.000000 *   0.47200    1.000000    
    337 O     c    0.700000 *  0.500000 *  0.200000 *   0.47200    1.000000    
    338 O     c    0.700000 *  0.500000 *  0.400000 *   0.47200    1.000000    
    339 O     c    0.700000 *  0.500000 *  0.600000 *   0.47200    1.000000    
    340 O     c    0.700000 *  0.500000 *  0.800000 *   0.47200    1.000000    
    341 O     c    0.700000 *  0.700000 *  0.000000 *   0.47200    1.000000    
    342 O     c    0.700000 *  0.700000 *  0.200000 *   0.47200    1.000000    
    343 O     c    0.700000 *  0.700000 *  0.400000 *   0.47200    1.000000    
    344 O     c    0.700000 *  0.700000 *  0.600000 *   0.47200    1.000000    
    345 O     c    0.700000 *  0.700000 *  0.800000 *   0.47200    1.000000    
    346 O     c    0.700000 *  0.900000 *  0.000000 *   0.47200    1.000000    
    347 O     c    0.700000 *  0.900000 *  0.200000 *   0.47200    1.000000    
    348 O     c    0.700000 *  0.900000 *  0.400000 *   0.47200    1.000000    
    349 O     c    0.700000 *  0.900000 *  0.600000 *   0.47200    1.000000    
    350 O     c    0.700000 *  0.900000 *  0.800000 *   0.47200    1.000000    
    351 O     c    0.900000 *  0.100000 *  0.000000 *   0.47200    1.000000    
    352 O     c    0.900000 *  0.100000 *  0.200000 *   0.47200    1.000000    
    353 O     c    0.900000 *  0.100000 *  0.400000 *   0.47200    1.000000    
    354 O     c    0.900000 *  0.100000 *  0.600000 *   0.47200    1.000000    
    355 O     c    0.900000 *  0.100000 *  0.800000 *   0.47200    1.000000    
    356 O     c    0.900000 *  0.300000 *  0.000000 *   0.47200    1.000000    
    357 O     c    0.900000 *  0.300000 *  0.200000 *   0.47200    1.000000    
    358 O     c    0.900000 *  0.300000 *  0.400000 *   0.47200    1.000000    
    359 O     c    0.900000 *  0.300000 *  0.600000 *   0.47200    1.000000    
    360 O     c    0.900000 *  0.300000 *  0.800000 *   0.47200    1.000000    
    361 O     c    0.900000 *  0.500000 *  0.000000 *   0.47200    1.000000    
    362 O     c    0.900000 *  0.500000 *  0.200000 *   0.47200    1.000000    
    363 O     c    0.900000 *  0.500000 *  0.400000 *   0.47200    1.000000    
    364 O     c    0.900000 *  0.500000 *  0.600000 *   0.47200    1.000000    
    365 O     c    0.900000 *  0.500000 *  0.800000 *   0.47200    1.000000    
    366 O     c    0.900000 *  0.700000 *  0.000000 *   0.47200    1.000000    
    367 O     c    0.900000 *  0.700000 *  0.200000 *   0.47200    1.000000    
    368 O     c    0.900000 *  0.700000 *  0.400000 *   0.47200    1.000000    
    369 O     c    0.900000 *  0.700000 *  0.600000 *   0.47200    1.000000    
    370 O     c    0.900000 *  0.700000 *  0.800000 *   0.47200    1.000000    
    371 O     c    0.900000 *  0.900000 *  0.000000 *   0.47200    1.000000    
    372 O     c    0.900000 *  0.900000 *  0.200000 *   0.47200    1.000000    
    373 O     c    0.900000 *  0.900000 *  0.400000 *   0.47200    1.000000    
    374 O     c    0.900000 *  0.900000 *  0.600000 *   0.47200    1.000000    
    375 O     c    0.900000 *  0.900000 *  0.800000 *   0.47200    1.000000    
    376 O     c    0.000000 *  0.100000 *  0.100000 *   0.47200    1.000000    
    377 O     c    0.000000 *  0.100000 *  0.300000 *   0.47200    1.000000    
    378 O     c    0.000000 *  0.100000 *  0.500000 *   0.47200    1.000000    
    379 O     c    0.000000 *  0.100000 *  0.700000 *   0.47200    1.000000    
    380 O     c    0.000000 *  0.100000 *  0.900000 *   0.47200    1.000000    
    381 O     c    0.000000 *  0.300000 *  0.100000 *   0.47200    1.000000    
    382 O     c    0.000000 *  0.300000 *  0.300000 *   0.47200    1.000000    
    383 O     c    0.000000 *  0.300000 *  0.500000 *   0.47200    1.000000    
    384 O     c    0.000000 *  0.300000 *  0.700000 *   0.47200    1.000000    
    385 O     c    0.000000 *  0.300000 *  0.900000 *   0.47200    1.000000    
    386 O     c    0.000000 *  0.500000 *  0.100000 *   0.47200    1.000000    
    387 O     c    0.000000 *  0.500000 *  0.300000 *   0.47200    1.000000    
    388 O     c    0.000000 *  0.500000 *  0.500000 *   0.47200    1.000000    
    389 O     c    0.000000 *  0.500000 *  0.700000 *   0.47200    1.000000    
    390 O     c    0.000000 *  0.500000 *  0.900000 *   0.47200    1.000000    
    391 O     c    0.000000 *  0.700000 *  0.100000 *   0.47200    1.000000    
    392 O     c    0.000000 *  0.700000 *  0.300000 *   0.47200    1.000000    
    393 O     c    0.000000 *  0.700000 *  0.500000 *   0.47200    1.000000    
    394 O     c    0.000000 *  0.700000 *  0.700000 *   0.47200    1.000000    
    395 O     c    0.000000 *  0.700000 *  0.900000 *   0.47200    1.000000    
    396 O     c    0.000000 *  0.900000 *  0.100000 *   0.47200    1.000000    
    397 O     c    0.000000 *  0.900000 *  0.300000 *   0.47200    1.000000    
    398 O     c    0.000000 *  0.900000 *  0.500000 *   0.47200    1.000000    
    399 O     c    0.000000 *  0.900000 *  0.700000 *   0.47200    1.000000    
    400 O     c    0.000000 *  0.900000 *  0.900000 *   0.47200    1.000000    
    401 O     c    0.200000 *  0.100000 *  0.100000 *   0.47200    1.000000    
    402 O     c    0.200000 *  0.100000 *  0.300000 *   0.47200    1.000000    
    403 O     c    0.200000 *  0.100000 *  0.500000 *   0.47200    1.000000    
    404 O     c    0.200000 *  0.100000 *  0.700000 *   0.47200    1.000000    
    405 O     c    0.200000 *  0.100000 *  0.900000 *   0.47200    1.000000    
    406 O     c    0.200000 *  0.300000 *  0.100000 *   0.47200    1.000000    
    407 O     c    0.200000 *  0.300000 *  0.300000 *   0.47200    1.000000    
    408 O     c    0.200000 *  0.300000 *  0.500000 *   0.47200    1.000000    
    409 O     c    0.200000 *  0.300000 *  0.700000 *   0.47200    1.000000    
    410 O     c    0.200000 *  0.300000 *  0.900000 *   0.47200    1.000000    
    411 O     c    0.200000 *  0.500000 *  0.100000 *   0.47200    1.000000    
    412 O     c    0.200000 *  0.500000 *  0.300000 *   0.47200    1.000000    
    413 O     c    0.200000 *  0.500000 *  0.500000 *   0.47200    1.000000    
    414 O     c    0.200000 *  0.500000 *  0.700000 *   0.47200    1.000000    
    415 O     c    0.200000 *  0.500000 *  0.900000 *   0.47200    1.000000    
    416 O     c    0.200000 *  0.700000 *  0.100000 *   0.47200    1.000000    
    417 O     c    0.200000 *  0.700000 *  0.300000 *   0.47200    1.000000    
    418 O     c    0.200000 *  0.700000 *  0.500000 *   0.47200    1.000000    
    419 O     c    0.200000 *  0.700000 *  0.700000 *   0.47200    1.000000    
    420 O     c    0.200000 *  0.700000 *  0.900000 *   0.47200    1.000000    
    421 O     c    0.200000 *  0.900000 *  0.100000 *   0.47200    1.000000    
    422 O     c    0.200000 *  0.900000 *  0.300000 *   0.47200    1.000000    
    423 O     c    0.200000 *  0.900000 *  0.500000 *   0.47200    1.000000    
    424 O     c    0.200000 *  0.900000 *  0.700000 *   0.47200    1.000000    
    425 O     c    0.200000 *  0.900000 *  0.900000 *   0.47200    1.000000    
    426 O     c    0.400000 *  0.100000 *  0.100000 *   0.47200    1.000000    
    427 O     c    0.400000 *  0.100000 *  0.300000 *   0.47200    1.000000    
    428 O     c    0.400000 *  0.100000 *  0.500000 *   0.47200    1.000000    
    429 O     c    0.400000 *  0.100000 *  0.700000 *   0.47200    1.000000    
    430 O     c    0.400000 *  0.100000 *  0.900000 *   0.47200    1.000000    
    431 O     c    0.400000 *  0.300000 *  0.100000 *   0.47200    1.000000    
    432 O     c    0.400000 *  0.300000 *  0.300000 *   0.47200    1.000000    
    433 O     c    0.400000 *  0.300000 *  0.500000 *   0.47200    1.000000    
    434 O     c    0.400000 *  0.300000 *  0.700000 *   0.47200    1.000000    
    435 O     c    0.400000 *  0.300000 *  0.900000 *   0.47200    1.000000    
    436 O     c    0.400000 *  0.500000 *  0.100000 *   0.47200    1.000000    
    437 O     c    0.400000 *  0.500000 *  0.300000 *   0.47200    1.000000    
    438 O     c    0.400000 *  0.500000 *  0.500000 *   0.47200    1.000000    
    439 O     c    0.400000 *  0.500000 *  0.700000 *   0.47200    1.000000    
    440 O     c    0.400000 *  0.500000 *  0.900000 *   0.47200    1.000000    
    441 O     c    0.400000 *  0.700000 *  0.100000 *   0.47200    1.000000    
    442 O     c    0.400000 *  0.700000 *  0.300000 *   0.47200    1.000000    
    443 O     c    0.400000 *  0.700000 *  0.500000 *   0.47200    1.000000    
    444 O     c    0.400000 *  0.700000 *  0.700000 *   0.47200    1.000000    
    445 O     c    0.400000 *  0.700000 *  0.900000 *   0.47200    1.000000    
    446 O     c    0.400000 *  0.900000 *  0.100000 *   0.47200    1.000000    
    447 O     c    0.400000 *  0.900000 *  0.300000 *   0.47200    1.000000    
    448 O     c    0.400000 *  0.900000 *  0.500000 *   0.47200    1.000000    
    449 O     c    0.400000 *  0.900000 *  0.700000 *   0.47200    1.000000    
    450 O     c    0.400000 *  0.900000 *  0.900000 *   0.47200    1.000000    
    451 O     c    0.600000 *  0.100000 *  0.100000 *   0.47200    1.000000    
    452 O     c    0.600000 *  0.100000 *  0.300000 *   0.47200    1.000000    
    453 O     c    0.600000 *  0.100000 *  0.500000 *   0.47200    1.000000    
    454 O     c    0.600000 *  0.100000 *  0.700000 *   0.47200    1.000000    
    455 O     c    0.600000 *  0.100000 *  0.900000 *   0.47200    1.000000    
    456 O     c    0.600000 *  0.300000 *  0.100000 *   0.47200    1.000000    
    457 O     c    0.600000 *  0.300000 *  0.300000 *   0.47200    1.000000    
    458 O     c    0.600000 *  0.300000 *  0.500000 *   0.47200    1.000000    
    459 O     c    0.600000 *  0.300000 *  0.700000 *   0.47200    1.000000    
    460 O     c    0.600000 *  0.300000 *  0.900000 *   0.47200    1.000000    
    461 O     c    0.600000 *  0.500000 *  0.100000 *   0.47200    1.000000    
    462 O     c    0.600000 *  0.500000 *  0.300000 *   0.47200    1.000000    
    463 O     c    0.600000 *  0.500000 *  0.500000 *   0.47200    1.000000    
    464 O     c    0.600000 *  0.500000 *  0.700000 *   0.47200    1.000000    
    465 O     c    0.600000 *  0.500000 *  0.900000 *   0.47200    1.000000    
    466 O     c    0.600000 *  0.700000 *  0.100000 *   0.47200    1.000000    
    467 O     c    0.600000 *  0.700000 *  0.300000 *   0.47200    1.000000    
    468 O     c    0.600000 *  0.700000 *  0.500000 *   0.47200    1.000000    
    469 O     c    0.600000 *  0.700000 *  0.700000 *   0.47200    1.000000    
    470 O     c    0.600000 *  0.700000 *  0.900000 *   0.47200    1.000000    
    471 O     c    0.600000 *  0.900000 *  0.100000 *   0.47200    1.000000    
    472 O     c    0.600000 *  0.900000 *  0.300000 *   0.47200    1.000000    
    473 O     c    0.600000 *  0.900000 *  0.500000 *   0.47200    1.000000    
    474 O     c    0.600000 *  0.900000 *  0.700000 *   0.47200    1.000000    
    475 O     c    0.600000 *  0.900000 *  0.900000 *   0.47200    1.000000    
    476 O     c    0.800000 *  0.100000 *  0.100000 *   0.47200    1.000000    
    477 O     c    0.800000 *  0.100000 *  0.300000 *   0.47200    1.000000    
    478 O     c    0.800000 *  0.100000 *  0.500000 *   0.47200    1.000000    
    479 O     c    0.800000 *  0.100000 *  0.700000 *   0.47200    1.000000    
    480 O     c    0.800000 *  0.100000 *  0.900000 *   0.47200    1.000000    
    481 O     c    0.800000 *  0.300000 *  0.100000 *   0.47200    1.000000    
    482 O     c    0.800000 *  0.300000 *  0.300000 *   0.47200    1.000000    
    483 O     c    0.800000 *  0.300000 *  0.500000 *   0.47200    1.000000    
    484 O     c    0.800000 *  0.300000 *  0.700000 *   0.47200    1.000000    
    485 O     c    0.800000 *  0.300000 *  0.900000 *   0.47200    1.000000    
    486 O     c    0.800000 *  0.500000 *  0.100000 *   0.47200    1.000000    
    487 O     c    0.800000 *  0.500000 *  0.300000 *   0.47200    1.000000    
    488 O     c    0.800000 *  0.500000 *  0.500000 *   0.47200    1.000000    
    489 O     c    0.800000 *  0.500000 *  0.700000 *   0.47200    1.000000    
    490 O     c    0.800000 *  0.500000 *  0.900000 *   0.47200    1.000000    
    491 O     c    0.800000 *  0.700000 *  0.100000 *   0.47200    1.000000    
    492 O     c    0.800000 *  0.700000 *  0.300000 *   0.47200    1.000000    
    493 O     c    0.800000 *  0.700000 *  0.500000 *   0.47200    1.000000    
    494 O     c    0.800000 *  0.700000 *  0.700000 *   0.47200    1.000000    
    495 O     c    0.800000 *  0.700000 *  0.900000 *   0.47200    1.000000    
    496 O     c    0.800000 *  0.900000 *  0.100000 *   0.47200    1.000000    
    497 O     c    0.800000 *  0.900000 *  0.300000 *   0.47200    1.000000    
    498 O     c    0.800000 *  0.900000 *  0.500000 *   0.47200    1.000000    
    499 O     c    0.800000 *  0.900000 *  0.700000 *   0.47200    1.000000    
    500 O     c    0.800000 *  0.900000 *  0.900000 *   0.47200    1.000000    
    501 O     c    0.100000 *  0.000000 *  0.100000 *   0.47200    1.000000    
    502 O     c    0.100000 *  0.000000 *  0.300000 *   0.47200    1.000000    
    503 O     c    0.100000 *  0.000000 *  0.500000 *   0.47200    1.000000    
    504 O     c    0.100000 *  0.000000 *  0.700000 *   0.47200    1.000000    
    505 O     c    0.100000 *  0.000000 *  0.900000 *   0.47200    1.000000    
    506 O     c    0.100000 *  0.200000 *  0.100000 *   0.47200    1.000000    
    507 O     c    0.100000 *  0.200000 *  0.300000 *   0.47200    1.000000    
    508 O     c    0.100000 *  0.200000 *  0.500000 *   0.47200    1.000000    
    509 O     c    0.100000 *  0.200000 *  0.700000 *   0.47200    1.000000    
    510 O     c    0.100000 *  0.200000 *  0.900000 *   0.47200    1.000000    
    511 O     c    0.100000 *  0.400000 *  0.100000 *   0.47200    1.000000    
    512 O     c    0.100000 *  0.400000 *  0.300000 *   0.47200    1.000000    
    513 O     c    0.100000 *  0.400000 *  0.500000 *   0.47200    1.000000    
    514 O     c    0.100000 *  0.400000 *  0.700000 *   0.47200    1.000000    
    515 O     c    0.100000 *  0.400000 *  0.900000 *   0.47200    1.000000    
    516 O     c    0.100000 *  0.600000 *  0.100000 *   0.47200    1.000000    
    517 O     c    0.100000 *  0.600000 *  0.300000 *   0.47200    1.000000    
    518 O     c    0.100000 *  0.600000 *  0.500000 *   0.47200    1.000000    
    519 O     c    0.100000 *  0.600000 *  0.700000 *   0.47200    1.000000    
    520 O     c    0.100000 *  0.600000 *  0.900000 *   0.47200    1.000000    
    521 O     c    0.100000 *  0.800000 *  0.100000 *   0.47200    1.000000    
    522 O     c    0.100000 *  0.800000 *  0.300000 *   0.47200    1.000000    
    523 O     c    0.100000 *  0.800000 *  0.500000 *   0.47200    1.000000    
    524 O     c    0.100000 *  0.800000 *  0.700000 *   0.47200    1.000000    
    525 O     c    0.100000 *  0.800000 *  0.900000 *   0.47200    1.000000    
    526 O     c    0.300000 *  0.000000 *  0.100000 *   0.47200    1.000000    
    527 O     c    0.300000 *  0.000000 *  0.300000 *   0.47200    1.000000    
    528 O     c    0.300000 *  0.000000 *  0.500000 *   0.47200    1.000000    
    529 O     c    0.300000 *  0.000000 *  0.700000 *   0.47200    1.000000    
    530 O     c    0.300000 *  0.000000 *  0.900000 *   0.47200    1.000000    
    531 O     c    0.300000 *  0.200000 *  0.100000 *   0.47200    1.000000    
    532 O     c    0.300000 *  0.200000 *  0.300000 *   0.47200    1.000000    
    533 O     c    0.300000 *  0.200000 *  0.500000 *   0.47200    1.000000    
    534 O     c    0.300000 *  0.200000 *  0.700000 *   0.47200    1.000000    
    535 O     c    0.300000 *  0.200000 *  0.900000 *   0.47200    1.000000    
    536 O     c    0.300000 *  0.400000 *  0.100000 *   0.47200    1.000000    
    537 O     c    0.300000 *  0.400000 *  0.300000 *   0.47200    1.000000    
    538 O     c    0.300000 *  0.400000 *  0.500000 *   0.47200    1.000000    
    539 O     c    0.300000 *  0.400000 *  0.700000 *   0.47200    1.000000    
    540 O     c    0.300000 *  0.400000 *  0.900000 *   0.47200    1.000000    
    541 O     c    0.300000 *  0.600000 *  0.100000 *   0.47200    1.000000    
    542 O     c    0.300000 *  0.600000 *  0.300000 *   0.47200    1.000000    
    543 O     c    0.300000 *  0.600000 *  0.500000 *   0.47200    1.000000    
    544 O     c    0.300000 *  0.600000 *  0.700000 *   0.47200    1.000000    
    545 O     c    0.300000 *  0.600000 *  0.900000 *   0.47200    1.000000    
    546 O     c    0.300000 *  0.800000 *  0.100000 *   0.47200    1.000000    
    547 O     c    0.300000 *  0.800000 *  0.300000 *   0.47200    1.000000    
    548 O     c    0.300000 *  0.800000 *  0.500000 *   0.47200    1.000000    
    549 O     c    0.300000 *  0.800000 *  0.700000 *   0.47200    1.000000    
    550 O     c    0.300000 *  0.800000 *  0.900000 *   0.47200    1.000000    
    551 O     c    0.500000 *  0.000000 *  0.100000 *   0.47200    1.000000    
    552 O     c    0.500000 *  0.000000 *  0.300000 *   0.47200    1.000000    
    553 O     c    0.500000 *  0.000000 *  0.500000 *   0.47200    1.000000    
    554 O     c    0.500000 *  0.000000 *  0.700000 *   0.47200    1.000000    
    555 O     c    0.500000 *  0.000000 *  0.900000 *   0.47200    1.000000    
    556 O     c    0.500000 *  0.200000 *  0.100000 *   0.47200    1.000000    
    557 O     c    0.500000 *  0.200000 *  0.300000 *   0.47200    1.000000    
    558 O     c    0.500000 *  0.200000 *  0.500000 *   0.47200    1.000000    
    559 O     c    0.500000 *  0.200000 *  0.700000 *   0.47200    1.000000    
    560 O     c    0.500000 *  0.200000 *  0.900000 *   0.47200    1.000000    
    561 O     c    0.500000 *  0.400000 *  0.100000 *   0.47200    1.000000    
    562 O     c    0.500000 *  0.400000 *  0.300000 *   0.47200    1.000000    
    563 O     c    0.500000 *  0.400000 *  0.500000 *   0.47200    1.000000    
    564 O     c    0.500000 *  0.400000 *  0.700000 *   0.47200    1.000000    
    565 O     c    0.500000 *  0.400000 *  0.900000 *   0.47200    1.000000    
    566 O     c    0.500000 *  0.600000 *  0.100000 *   0.47200    1.000000    
    567 O     c    0.500000 *  0.600000 *  0.300000 *   0.47200    1.000000    
    568 O     c    0.500000 *  0.600000 *  0.500000 *   0.47200    1.000000    
    569 O     c    0.500000 *  0.600000 *  0.700000 *   0.47200    1.000000    
    570 O     c    0.500000 *  0.600000 *  0.900000 *   0.47200    1.000000    
    571 O     c    0.500000 *  0.800000 *  0.100000 *   0.47200    1.000000    
    572 O     c    0.500000 *  0.800000 *  0.300000 *   0.47200    1.000000    
    573 O     c    0.500000 *  0.800000 *  0.500000 *   0.47200    1.000000    
    574 O     c    0.500000 *  0.800000 *  0.700000 *   0.47200    1.000000    
    575 O     c    0.500000 *  0.800000 *  0.900000 *   0.47200    1.000000    
    576 O     c    0.700000 *  0.000000 *  0.100000 *   0.47200    1.000000    
    577 O     c    0.700000 *  0.000000 *  0.300000 *   0.47200    1.000000    
    578 O     c    0.700000 *  0.000000 *  0.500000 *   0.47200    1.000000    
    579 O     c    0.700000 *  0.000000 *  0.700000 *   0.47200    1.000000    
    580 O     c    0.700000 *  0.000000 *  0.900000 *   0.47200    1.000000    
    581 O     c    0.700000 *  0.200000 *  0.100000 *   0.47200    1.000000    
    582 O     c    0.700000 *  0.200000 *  0.300000 *   0.47200    1.000000    
    583 O     c    0.700000 *  0.200000 *  0.500000 *   0.47200    1.000000    
    584 O     c    0.700000 *  0.200000 *  0.700000 *   0.47200    1.000000    
    585 O     c    0.700000 *  0.200000 *  0.900000 *   0.47200    1.000000    
    586 O     c    0.700000 *  0.400000 *  0.100000 *   0.47200    1.000000    
    587 O     c    0.700000 *  0.400000 *  0.300000 *   0.47200    1.000000    
    588 O     c    0.700000 *  0.400000 *  0.500000 *   0.47200    1.000000    
    589 O     c    0.700000 *  0.400000 *  0.700000 *   0.47200    1.000000    
    590 O     c    0.700000 *  0.400000 *  0.900000 *   0.47200    1.000000    
    591 O     c    0.700000 *  0.600000 *  0.100000 *   0.47200    1.000000    
    592 O     c    0.700000 *  0.600000 *  0.300000 *   0.47200    1.000000    
    593 O     c    0.700000 *  0.600000 *  0.500000 *   0.47200    1.000000    
    594 O     c    0.700000 *  0.600000 *  0.700000 *   0.47200    1.000000    
    595 O     c    0.700000 *  0.600000 *  0.900000 *   0.47200    1.000000    
    596 O     c    0.700000 *  0.800000 *  0.100000 *   0.47200    1.000000    
    597 O     c    0.700000 *  0.800000 *  0.300000 *   0.47200    1.000000    
    598 O     c    0.700000 *  0.800000 *  0.500000 *   0.47200    1.000000    
    599 O     c    0.700000 *  0.800000 *  0.700000 *   0.47200    1.000000    
    600 O     c    0.700000 *  0.800000 *  0.900000 *   0.47200    1.000000    
    601 O     c    0.900000 *  0.000000 *  0.100000 *   0.47200    1.000000    
    602 O     c    0.900000 *  0.000000 *  0.300000 *   0.47200    1.000000    
    603 O     c    0.900000 *  0.000000 *  0.500000 *   0.47200    1.000000    
    604 O     c    0.900000 *  0.000000 *  0.700000 *   0.47200    1.000000    
    605 O     c    0.900000 *  0.000000 *  0.900000 *   0.47200    1.000000    
    606 O     c    0.900000 *  0.200000 *  0.100000 *   0.47200    1.000000    
    607 O     c    0.900000 *  0.200000 *  0.300000 *   0.47200    1.000000    
    608 O     c    0.900000 *  0.200000 *  0.500000 *   0.47200    1.000000    
    609 O     c    0.900000 *  0.200000 *  0.700000 *   0.47200    1.000000    
    610 O     c    0.900000 *  0.200000 *  0.900000 *   0.47200    1.000000    
    611 O     c    0.900000 *  0.400000 *  0.100000 *   0.47200    1.000000    
    612 O     c    0.900000 *  0.400000 *  0.300000 *   0.47200    1.000000    
    613 O     c    0.900000 *  0.400000 *  0.500000 *   0.47200    1.000000    
    614 O     c    0.900000 *  0.400000 *  0.700000 *   0.47200    1.000000    
    615 O     c    0.900000 *  0.400000 *  0.900000 *   0.47200    1.000000    
    616 O     c    0.900000 *  0.600000 *  0.100000 *   0.47200    1.000000    
    617 O     c    0.900000 *  0.600000 *  0.300000 *   0.47200    1.000000    
    618 O     c    0.900000 *  0.600000 *  0.500000 *   0.47200    1.000000    
    619 O     c    0.900000 *  0.600000 *  0.700000 *   0.47200    1.000000    
    620 O     c    0.900000 *  0.600000 *  0.900000 *   0.47200    1.000000    
    621 O     c    0.900000 *  0.800000 *  0.100000 *   0.47200    1.000000    
    622 O     c    0.900000 *  0.800000 *  0.300000 *   0.47200    1.000000    
    623 O     c    0.900000 *  0.800000 *  0.500000 *   0.47200    1.000000    
    624 O     c    0.900000 *  0.800000 *  0.700000 *   0.47200    1.000000    
    625 O     c    0.900000 *  0.800000 *  0.900000 *   0.47200    1.000000    
    626 Ba    s    0.000000 *  0.000000 *  0.000000 *  -1.45000    1.000000    
    627 Ba    s    0.000000 *  0.000000 *  0.200000 *  -1.45000    1.000000    
    628 Ba    s    0.000000 *  0.000000 *  0.400000 *  -1.45000    1.000000    
    629 Ba    s    0.000000 *  0.000000 *  0.600000 *  -1.45000    1.000000    
    630 Ba    s    0.000000 *  0.000000 *  0.800000 *  -1.45000    1.000000    
    631 Ba    s    0.000000 *  0.200000 *  0.000000 *  -1.45000    1.000000    
    632 Ba    s    0.000000 *  0.200000 *  0.200000 *  -1.45000    1.000000    
    633 Ba    s    0.000000 *  0.200000 *  0.600000 *  -1.45000    1.000000    
    634 Ba    s    0.000000 *  0.200000 *  0.800000 *  -1.45000    1.000000    
    635 Ba    s    0.000000 *  0.400000 *  0.000000 *  -1.45000    1.000000    
    636 Ba    s    0.000000 *  0.400000 *  0.200000 *  -1.45000    1.000000    
    637 Ba    s    0.000000 *  0.400000 *  0.400000 *  -1.45000    1.000000    
    638 Ba    s    0.000000 *  0.400000 *  0.600000 *  -1.45000    1.000000    
    639 Ba    s    0.000000 *  0.400000 *  0.800000 *  -1.45000    1.000000    
    640 Ba    s    0.000000 *  0.600000 *  0.000000 *  -1.45000    1.000000    
    641 Ba    s    0.000000 *  0.600000 *  0.200000 *  -1.45000    1.000000    
    642 Ba    s    0.000000 *  0.600000 *  0.400000 *  -1.45000    1.000000    
    643 Ba    s    0.000000 *  0.600000 *  0.600000 *  -1.45000    1.000000    
    644 Ba    s    0.000000 *  0.600000 *  0.800000 *  -1.45000    1.000000    
    645 Ba    s    0.000000 *  0.800000 *  0.000000 *  -1.45000    1.000000    
    646 Ba    s    0.000000 *  0.800000 *  0.200000 *  -1.45000    1.000000    
    647 Ba    s    0.000000 *  0.800000 *  0.400000 *  -1.45000    1.000000    
    648 Ba    s    0.000000 *  0.800000 *  0.600000 *  -1.45000    1.000000    
    649 Ba    s    0.000000 *  0.800000 *  0.800000 *  -1.45000    1.000000    
    650 Ba    s    0.200000 *  0.000000 *  0.000000 *  -1.45000    1.000000    
    651 Ba    s    0.200000 *  0.000000 *  0.200000 *  -1.45000    1.000000    
    652 Ba    s    0.200000 *  0.000000 *  0.400000 *  -1.45000    1.000000    
    653 Ba    s    0.200000 *  0.000000 *  0.600000 *  -1.45000    1.000000    
    654 Ba    s    0.200000 *  0.000000 *  0.800000 *  -1.45000    1.000000    
    655 Ba    s    0.200000 *  0.200000 *  0.000000 *  -1.45000    1.000000    
    656 Ba    s    0.200000 *  0.200000 *  0.200000 *  -1.45000    1.000000    
    657 Ba    s    0.200000 *  0.200000 *  0.400000 *  -1.45000    1.000000    
    658 Ba    s    0.200000 *  0.200000 *  0.600000 *  -1.45000    1.000000    
    659 Ba    s    0.200000 *  0.200000 *  0.800000 *  -1.45000    1.000000    
    660 Ba    s    0.200000 *  0.400000 *  0.000000 *  -1.45000    1.000000    
    661 Ba    s    0.200000 *  0.400000 *  0.200000 *  -1.45000    1.000000    
    662 Ba    s    0.200000 *  0.400000 *  0.400000 *  -1.45000    1.000000    
    663 Ba    s    0.200000 *  0.400000 *  0.600000 *  -1.45000    1.000000    
    664 Ba    s    0.200000 *  0.400000 *  0.800000 *  -1.45000    1.000000    
    665 Ba    s    0.200000 *  0.600000 *  0.000000 *  -1.45000    1.000000    
    666 Ba    s    0.200000 *  0.600000 *  0.200000 *  -1.45000    1.000000    
    667 Ba    s    0.200000 *  0.600000 *  0.400000 *  -1.45000    1.000000    
    668 Ba    s    0.200000 *  0.600000 *  0.600000 *  -1.45000    1.000000    
    669 Ba    s    0.200000 *  0.600000 *  0.800000 *  -1.45000    1.000000    
    670 Ba    s    0.200000 *  0.800000 *  0.000000 *  -1.45000    1.000000    
    671 Ba    s    0.200000 *  0.800000 *  0.200000 *  -1.45000    1.000000    
    672 Ba    s    0.200000 *  0.800000 *  0.400000 *  -1.45000    1.000000    
    673 Ba    s    0.200000 *  0.800000 *  0.600000 *  -1.45000    1.000000    
    674 Ba    s    0.200000 *  0.800000 *  0.800000 *  -1.45000    1.000000    
    675 Ba    s    0.400000 *  0.000000 *  0.000000 *  -1.45000    1.000000    
    676 Ba    s    0.400000 *  0.000000 *  0.200000 *  -1.45000    1.000000    
    677 Ba    s    0.400000 *  0.000000 *  0.400000 *  -1.45000    1.000000    
    678 Ba    s    0.400000 *  0.000000 *  0.600000 *  -1.45000    1.000000    
    679 Ba    s    0.400000 *  0.000000 *  0.800000 *  -1.45000    1.000000    
    680 Ba    s    0.400000 *  0.200000 *  0.000000 *  -1.45000    1.000000    
    681 Ba    s    0.400000 *  0.200000 *  0.200000 *  -1.45000    1.000000    
    682 Ba    s    0.400000 *  0.200000 *  0.400000 *  -1.45000    1.000000    
    683 Ba    s    0.400000 *  0.200000 *  0.600000 *  -1.45000    1.000000    
    684 Ba    s    0.400000 *  0.200000 *  0.800000 *  -1.45000    1.000000    
    685 Ba    s    0.400000 *  0.400000 *  0.000000 *  -1.45000    1.000000    
    686 Ba    s    0.400000 *  0.400000 *  0.200000 *  -1.45000    1.000000    
    687 Ba    s    0.400000 *  0.400000 *  0.400000 *  -1.45000    1.000000    
    688 Ba    s    0.400000 *  0.400000 *  0.600000 *  -1.45000    1.000000    
    689 Ba    s    0.400000 *  0.400000 *  0.800000 *  -1.45000    1.000000    
    690 Ba    s    0.400000 *  0.600000 *  0.000000 *  -1.45000    1.000000    
    691 Ba    s    0.400000 *  0.600000 *  0.400000 *  -1.45000    1.000000    
    692 Ba    s    0.400000 *  0.600000 *  0.600000 *  -1.45000    1.000000    
    693 Ba    s    0.400000 *  0.600000 *  0.800000 *  -1.45000    1.000000    
    694 Ba    s    0.400000 *  0.800000 *  0.000000 *  -1.45000    1.000000    
    695 Ba    s    0.400000 *  0.800000 *  0.200000 *  -1.45000    1.000000    
    696 Ba    s    0.400000 *  0.800000 *  0.400000 *  -1.45000    1.000000    
    697 Ba    s    0.400000 *  0.800000 *  0.600000 *  -1.45000    1.000000    
    698 Ba    s    0.400000 *  0.800000 *  0.800000 *  -1.45000    1.000000    
    699 Ba    s    0.600000 *  0.000000 *  0.000000 *  -1.45000    1.000000    
    700 Ba    s    0.600000 *  0.000000 *  0.200000 *  -1.45000    1.000000    
    701 Ba    s    0.600000 *  0.000000 *  0.400000 *  -1.45000    1.000000    
    702 Ba    s    0.600000 *  0.000000 *  0.600000 *  -1.45000    1.000000    
    703 Ba    s    0.600000 *  0.000000 *  0.800000 *  -1.45000    1.000000    
    704 Ba    s    0.600000 *  0.200000 *  0.000000 *  -1.45000    1.000000    
    705 Ba    s    0.600000 *  0.200000 *  0.200000 *  -1.45000    1.000000    
    706 Ba    s    0.600000 *  0.200000 *  0.400000 *  -1.45000    1.000000    
    707 Ba    s    0.600000 *  0.200000 *  0.600000 *  -1.45000    1.000000    
    708 Ba    s    0.600000 *  0.200000 *  0.800000 *  -1.45000    1.000000    
    709 Ba    s    0.600000 *  0.400000 *  0.000000 *  -1.45000    1.000000    
    710 Ba    s    0.600000 *  0.400000 *  0.200000 *  -1.45000    1.000000    
    711 Ba    s    0.600000 *  0.400000 *  0.400000 *  -1.45000    1.000000    
    712 Ba    s    0.600000 *  0.400000 *  0.600000 *  -1.45000    1.000000    
    713 Ba    s    0.600000 *  0.400000 *  0.800000 *  -1.45000    1.000000    
    714 Ba    s    0.600000 *  0.600000 *  0.000000 *  -1.45000    1.000000    
    715 Ba    s    0.600000 *  0.600000 *  0.200000 *  -1.45000    1.000000    
    716 Ba    s    0.600000 *  0.600000 *  0.400000 *  -1.45000    1.000000    
    717 Ba    s    0.600000 *  0.600000 *  0.600000 *  -1.45000    1.000000    
    718 Ba    s    0.600000 *  0.600000 *  0.800000 *  -1.45000    1.000000    
    719 Ba    s    0.600000 *  0.800000 *  0.000000 *  -1.45000    1.000000    
    720 Ba    s    0.600000 *  0.800000 *  0.200000 *  -1.45000    1.000000    
    721 Ba    s    0.600000 *  0.800000 *  0.400000 *  -1.45000    1.000000    
    722 Ba    s    0.600000 *  0.800000 *  0.600000 *  -1.45000    1.000000    
    723 Ba    s    0.600000 *  0.800000 *  0.800000 *  -1.45000    1.000000    
    724 Ba    s    0.800000 *  0.000000 *  0.000000 *  -1.45000    1.000000    
    725 Ba    s    0.800000 *  0.000000 *  0.200000 *  -1.45000    1.000000    
    726 Ba    s    0.800000 *  0.000000 *  0.400000 *  -1.45000    1.000000    
    727 Ba    s    0.800000 *  0.000000 *  0.600000 *  -1.45000    1.000000    
    728 Ba    s    0.800000 *  0.000000 *  0.800000 *  -1.45000    1.000000    
    729 Ba    s    0.800000 *  0.200000 *  0.000000 *  -1.45000    1.000000    
    730 Ba    s    0.800000 *  0.200000 *  0.200000 *  -1.45000    1.000000    
    731 Ba    s    0.800000 *  0.200000 *  0.400000 *  -1.45000    1.000000    
    732 Ba    s    0.800000 *  0.200000 *  0.600000 *  -1.45000    1.000000    
    733 Ba    s    0.800000 *  0.200000 *  0.800000 *  -1.45000    1.000000    
    734 Ba    s    0.800000 *  0.400000 *  0.000000 *  -1.45000    1.000000    
    735 Ba    s    0.800000 *  0.400000 *  0.200000 *  -1.45000    1.000000    
    736 Ba    s    0.800000 *  0.400000 *  0.400000 *  -1.45000    1.000000    
    737 Ba    s    0.800000 *  0.400000 *  0.600000 *  -1.45000    1.000000    
    738 Ba    s    0.800000 *  0.400000 *  0.800000 *  -1.45000    1.000000    
    739 Ba    s    0.800000 *  0.600000 *  0.000000 *  -1.45000    1.000000    
    740 Ba    s    0.800000 *  0.600000 *  0.200000 *  -1.45000    1.000000    
    741 Ba    s    0.800000 *  0.600000 *  0.400000 *  -1.45000    1.000000    
    742 Ba    s    0.800000 *  0.600000 *  0.600000 *  -1.45000    1.000000    
    743 Ba    s    0.800000 *  0.600000 *  0.800000 *  -1.45000    1.000000    
    744 Ba    s    0.800000 *  0.800000 *  0.000000 *  -1.45000    1.000000    
    745 Ba    s    0.800000 *  0.800000 *  0.400000 *  -1.45000    1.000000    
    746 Ba    s    0.800000 *  0.800000 *  0.600000 *  -1.45000    1.000000    
    747 Ba    s    0.800000 *  0.800000 *  0.800000 *  -1.45000    1.000000    
    748 O     s    0.100000 *  0.100000 *  0.000000 *  -2.47200    1.000000    
    749 O     s    0.100000 *  0.100000 *  0.200000 *  -2.47200    1.000000    
    750 O     s    0.100000 *  0.100000 *  0.400000 *  -2.47200    1.000000    
    751 O     s    0.100000 *  0.100000 *  0.600000 *  -2.47200    1.000000    
    752 O     s    0.100000 *  0.100000 *  0.800000 *  -2.47200    1.000000    
    753 O     s    0.100000 *  0.300000 *  0.000000 *  -2.47200    1.000000    
    754 O     s    0.100000 *  0.300000 *  0.200000 *  -2.47200    1.000000    
    755 O     s    0.100000 *  0.300000 *  0.400000 *  -2.47200    1.000000    
    756 O     s    0.100000 *  0.300000 *  0.600000 *  -2.47200    1.000000    
    757 O     s    0.100000 *  0.300000 *  0.800000 *  -2.47200    1.000000    
    758 O     s    0.100000 *  0.500000 *  0.000000 *  -2.47200    1.000000    
    759 O     s    0.100000 *  0.500000 *  0.200000 *  -2.47200    1.000000    
    760 O     s    0.100000 *  0.500000 *  0.400000 *  -2.47200    1.000000    
    761 O     s    0.100000 *  0.500000 *  0.600000 *  -2.47200    1.000000    
    762 O     s    0.100000 *  0.500000 *  0.800000 *  -2.47200    1.000000    
    763 O     s    0.100000 *  0.700000 *  0.000000 *  -2.47200    1.000000    
    764 O     s    0.100000 *  0.700000 *  0.200000 *  -2.47200    1.000000    
    765 O     s    0.100000 *  0.700000 *  0.400000 *  -2.47200    1.000000    
    766 O     s    0.100000 *  0.700000 *  0.600000 *  -2.47200    1.000000    
    767 O     s    0.100000 *  0.700000 *  0.800000 *  -2.47200    1.000000    
    768 O     s    0.100000 *  0.900000 *  0.000000 *  -2.47200    1.000000    
    769 O     s    0.100000 *  0.900000 *  0.200000 *  -2.47200    1.000000    
    770 O     s    0.100000 *  0.900000 *  0.400000 *  -2.47200    1.000000    
    771 O     s    0.100000 *  0.900000 *  0.600000 *  -2.47200    1.000000    
    772 O     s    0.100000 *  0.900000 *  0.800000 *  -2.47200    1.000000    
    773 O     s    0.300000 *  0.100000 *  0.000000 *  -2.47200    1.000000    
    774 O     s    0.300000 *  0.100000 *  0.200000 *  -2.47200    1.000000    
    775 O     s    0.300000 *  0.100000 *  0.400000 *  -2.47200    1.000000    
    776 O     s    0.300000 *  0.100000 *  0.600000 *  -2.47200    1.000000    
    777 O     s    0.300000 *  0.100000 *  0.800000 *  -2.47200    1.000000    
    778 O     s    0.300000 *  0.300000 *  0.000000 *  -2.47200    1.000000    
    779 O     s    0.300000 *  0.300000 *  0.200000 *  -2.47200    1.000000    
    780 O     s    0.300000 *  0.300000 *  0.400000 *  -2.47200    1.000000    
    781 O     s    0.300000 *  0.300000 *  0.600000 *  -2.47200    1.000000    
    782 O     s    0.300000 *  0.300000 *  0.800000 *  -2.47200    1.000000    
    783 O     s    0.300000 *  0.500000 *  0.000000 *  -2.47200    1.000000    
    784 O     s    0.300000 *  0.500000 *  0.200000 *  -2.47200    1.000000    
    785 O     s    0.300000 *  0.500000 *  0.400000 *  -2.47200    1.000000    
    786 O     s    0.300000 *  0.500000 *  0.600000 *  -2.47200    1.000000    
    787 O     s    0.300000 *  0.500000 *  0.800000 *  -2.47200    1.000000    
    788 O     s    0.300000 *  0.700000 *  0.000000 *  -2.47200    1.000000    
    789 O     s    0.300000 *  0.700000 *  0.200000 *  -2.47200    1.000000    
    790 O     s    0.300000 *  0.700000 *  0.400000 *  -2.47200    1.000000    
    791 O     s    0.300000 *  0.700000 *  0.600000 *  -2.47200    1.000000    
    792 O     s    0.300000 *  0.700000 *  0.800000 *  -2.47200    1.000000    
    793 O     s    0.300000 *  0.900000 *  0.000000 *  -2.47200    1.000000    
    794 O     s    0.300000 *  0.900000 *  0.200000 *  -2.47200    1.000000    
    795 O     s    0.300000 *  0.900000 *  0.400000 *  -2.47200    1.000000    
    796 O     s    0.300000 *  0.900000 *  0.600000 *  -2.47200    1.000000    
    797 O     s    0.300000 *  0.900000 *  0.800000 *  -2.47200    1.000000    
    798 O     s    0.500000 *  0.100000 *  0.000000 *  -2.47200    1.000000    
    799 O     s    0.500000 *  0.100000 *  0.200000 *  -2.47200    1.000000    
    800 O     s    0.500000 *  0.100000 *  0.400000 *  -2.47200    1.000000    
    801 O     s    0.500000 *  0.100000 *  0.600000 *  -2.47200    1.000000    
    802 O     s    0.500000 *  0.100000 *  0.800000 *  -2.47200    1.000000    
    803 O     s    0.500000 *  0.300000 *  0.000000 *  -2.47200    1.000000    
    804 O     s    0.500000 *  0.300000 *  0.200000 *  -2.47200    1.000000    
    805 O     s    0.500000 *  0.300000 *  0.400000 *  -2.47200    1.000000    
    806 O     s    0.500000 *  0.300000 *  0.600000 *  -2.47200    1.000000    
    807 O     s    0.500000 *  0.300000 *  0.800000 *  -2.47200    1.000000    
    808 O     s    0.500000 *  0.500000 *  0.000000 *  -2.47200    1.000000    
    809 O     s    0.500000 *  0.500000 *  0.200000 *  -2.47200    1.000000    
    810 O     s    0.500000 *  0.500000 *  0.400000 *  -2.47200    1.000000    
    811 O     s    0.500000 *  0.500000 *  0.600000 *  -2.47200    1.000000    
    812 O     s    0.500000 *  0.500000 *  0.800000 *  -2.47200    1.000000    
    813 O     s    0.500000 *  0.700000 *  0.000000 *  -2.47200    1.000000    
    814 O     s    0.500000 *  0.700000 *  0.200000 *  -2.47200    1.000000    
    815 O     s    0.500000 *  0.700000 *  0.400000 *  -2.47200    1.000000    
    816 O     s    0.500000 *  0.700000 *  0.600000 *  -2.47200    1.000000    
    817 O     s    0.500000 *  0.700000 *  0.800000 *  -2.47200    1.000000    
    818 O     s    0.500000 *  0.900000 *  0.000000 *  -2.47200    1.000000    
    819 O     s    0.500000 *  0.900000 *  0.200000 *  -2.47200    1.000000    
    820 O     s    0.500000 *  0.900000 *  0.400000 *  -2.47200    1.000000    
    821 O     s    0.500000 *  0.900000 *  0.600000 *  -2.47200    1.000000    
    822 O     s    0.500000 *  0.900000 *  0.800000 *  -2.47200    1.000000    
    823 O     s    0.700000 *  0.100000 *  0.000000 *  -2.47200    1.000000    
    824 O     s    0.700000 *  0.100000 *  0.200000 *  -2.47200    1.000000    
    825 O     s    0.700000 *  0.100000 *  0.400000 *  -2.47200    1.000000    
    826 O     s    0.700000 *  0.100000 *  0.600000 *  -2.47200    1.000000    
    827 O     s    0.700000 *  0.100000 *  0.800000 *  -2.47200    1.000000    
    828 O     s    0.700000 *  0.300000 *  0.000000 *  -2.47200    1.000000    
    829 O     s    0.700000 *  0.300000 *  0.200000 *  -2.47200    1.000000    
    830 O     s    0.700000 *  0.300000 *  0.400000 *  -2.47200    1.000000    
    831 O     s    0.700000 *  0.300000 *  0.600000 *  -2.47200    1.000000    
    832 O     s    0.700000 *  0.300000 *  0.800000 *  -2.47200    1.000000    
    833 O     s    0.700000 *  0.500000 *  0.000000 *  -2.47200    1.000000    
    834 O     s    0.700000 *  0.500000 *  0.200000 *  -2.47200    1.000000    
    835 O     s    0.700000 *  0.500000 *  0.400000 *  -2.47200    1.000000    
    836 O     s    0.700000 *  0.500000 *  0.600000 *  -2.47200    1.000000    
    837 O     s    0.700000 *  0.500000 *  0.800000 *  -2.47200    1.000000    
    838 O     s    0.700000 *  0.700000 *  0.000000 *  -2.47200    1.000000    
    839 O     s    0.700000 *  0.700000 *  0.200000 *  -2.47200    1.000000    
    840 O     s    0.700000 *  0.700000 *  0.400000 *  -2.47200    1.000000    
    841 O     s    0.700000 *  0.700000 *  0.600000 *  -2.47200    1.000000    
    842 O     s    0.700000 *  0.700000 *  0.800000 *  -2.47200    1.000000    
    843 O     s    0.700000 *  0.900000 *  0.000000 *  -2.47200    1.000000    
    844 O     s    0.700000 *  0.900000 *  0.200000 *  -2.47200    1.000000    
    845 O     s    0.700000 *  0.900000 *  0.400000 *  -2.47200    1.000000    
    846 O     s    0.700000 *  0.900000 *  0.600000 *  -2.47200    1.000000    
    847 O     s    0.700000 *  0.900000 *  0.800000 *  -2.47200    1.000000    
    848 O     s    0.900000 *  0.100000 *  0.000000 *  -2.47200    1.000000    
    849 O     s    0.900000 *  0.100000 *  0.200000 *  -2.47200    1.000000    
    850 O     s    0.900000 *  0.100000 *  0.400000 *  -2.47200    1.000000    
    851 O     s    0.900000 *  0.100000 *  0.600000 *  -2.47200    1.000000    
    852 O     s    0.900000 *  0.100000 *  0.800000 *  -2.47200    1.000000    
    853 O     s    0.900000 *  0.300000 *  0.000000 *  -2.47200    1.000000    
    854 O     s    0.900000 *  0.300000 *  0.200000 *  -2.47200    1.000000    
    855 O     s    0.900000 *  0.300000 *  0.400000 *  -2.47200    1.000000    
    856 O     s    0.900000 *  0.300000 *  0.600000 *  -2.47200    1.000000    
    857 O     s    0.900000 *  0.300000 *  0.800000 *  -2.47200    1.000000    
    858 O     s    0.900000 *  0.500000 *  0.000000 *  -2.47200    1.000000    
    859 O     s    0.900000 *  0.500000 *  0.200000 *  -2.47200    1.000000    
    860 O     s    0.900000 *  0.500000 *  0.400000 *  -2.47200    1.000000    
    861 O     s    0.900000 *  0.500000 *  0.600000 *  -2.47200    1.000000    
    862 O     s    0.900000 *  0.500000 *  0.800000 *  -2.47200    1.000000    
    863 O     s    0.900000 *  0.700000 *  0.000000 *  -2.47200    1.000000    
    864 O     s    0.900000 *  0.700000 *  0.200000 *  -2.47200    1.000000    
    865 O     s    0.900000 *  0.700000 *  0.400000 *  -2.47200    1.000000    
    866 O     s    0.900000 *  0.700000 *  0.600000 *  -2.47200    1.000000    
    867 O     s    0.900000 *  0.700000 *  0.800000 *  -2.47200    1.000000    
    868 O     s    0.900000 *  0.900000 *  0.000000 *  -2.47200    1.000000    
    869 O     s    0.900000 *  0.900000 *  0.200000 *  -2.47200    1.000000    
    870 O     s    0.900000 *  0.900000 *  0.400000 *  -2.47200    1.000000    
    871 O     s    0.900000 *  0.900000 *  0.600000 *  -2.47200    1.000000    
    872 O     s    0.900000 *  0.900000 *  0.800000 *  -2.47200    1.000000    
    873 O     s    0.000000 *  0.100000 *  0.100000 *  -2.47200    1.000000    
    874 O     s    0.000000 *  0.100000 *  0.300000 *  -2.47200    1.000000    
    875 O     s    0.000000 *  0.100000 *  0.500000 *  -2.47200    1.000000    
    876 O     s    0.000000 *  0.100000 *  0.700000 *  -2.47200    1.000000    
    877 O     s    0.000000 *  0.100000 *  0.900000 *  -2.47200    1.000000    
    878 O     s    0.000000 *  0.300000 *  0.100000 *  -2.47200    1.000000    
    879 O     s    0.000000 *  0.300000 *  0.300000 *  -2.47200    1.000000    
    880 O     s    0.000000 *  0.300000 *  0.500000 *  -2.47200    1.000000    
    881 O     s    0.000000 *  0.300000 *  0.700000 *  -2.47200    1.000000    
    882 O     s    0.000000 *  0.300000 *  0.900000 *  -2.47200    1.000000    
    883 O     s    0.000000 *  0.500000 *  0.100000 *  -2.47200    1.000000    
    884 O     s    0.000000 *  0.500000 *  0.300000 *  -2.47200    1.000000    
    885 O     s    0.000000 *  0.500000 *  0.500000 *  -2.47200    1.000000    
    886 O     s    0.000000 *  0.500000 *  0.700000 *  -2.47200    1.000000    
    887 O     s    0.000000 *  0.500000 *  0.900000 *  -2.47200    1.000000    
    888 O     s    0.000000 *  0.700000 *  0.100000 *  -2.47200    1.000000    
    889 O     s    0.000000 *  0.700000 *  0.300000 *  -2.47200    1.000000    
    890 O     s    0.000000 *  0.700000 *  0.500000 *  -2.47200    1.000000    
    891 O     s    0.000000 *  0.700000 *  0.700000 *  -2.47200    1.000000    
    892 O     s    0.000000 *  0.700000 *  0.900000 *  -2.47200    1.000000    
    893 O     s    0.000000 *  0.900000 *  0.100000 *  -2.47200    1.000000    
    894 O     s    0.000000 *  0.900000 *  0.300000 *  -2.47200    1.000000    
    895 O     s    0.000000 *  0.900000 *  0.500000 *  -2.47200    1.000000    
    896 O     s    0.000000 *  0.900000 *  0.700000 *  -2.47200    1.000000    
    897 O     s    0.000000 *  0.900000 *  0.900000 *  -2.47200    1.000000    
    898 O     s    0.200000 *  0.100000 *  0.100000 *  -2.47200    1.000000    
    899 O     s    0.200000 *  0.100000 *  0.300000 *  -2.47200    1.000000    
    900 O     s    0.200000 *  0.100000 *  0.500000 *  -2.47200    1.000000    
    901 O     s    0.200000 *  0.100000 *  0.700000 *  -2.47200    1.000000    
    902 O     s    0.200000 *  0.100000 *  0.900000 *  -2.47200    1.000000    
    903 O     s    0.200000 *  0.300000 *  0.100000 *  -2.47200    1.000000    
    904 O     s    0.200000 *  0.300000 *  0.300000 *  -2.47200    1.000000    
    905 O     s    0.200000 *  0.300000 *  0.500000 *  -2.47200    1.000000    
    906 O     s    0.200000 *  0.300000 *  0.700000 *  -2.47200    1.000000    
    907 O     s    0.200000 *  0.300000 *  0.900000 *  -2.47200    1.000000    
    908 O     s    0.200000 *  0.500000 *  0.100000 *  -2.47200    1.000000    
    909 O     s    0.200000 *  0.500000 *  0.300000 *  -2.47200    1.000000    
    910 O     s    0.200000 *  0.500000 *  0.500000 *  -2.47200    1.000000    
    911 O     s    0.200000 *  0.500000 *  0.700000 *  -2.47200    1.000000    
    912 O     s    0.200000 *  0.500000 *  0.900000 *  -2.47200    1.000000    
    913 O     s    0.200000 *  0.700000 *  0.100000 *  -2.47200    1.000000    
    914 O     s    0.200000 *  0.700000 *  0.300000 *  -2.47200    1.000000    
    915 O     s    0.200000 *  0.700000 *  0.500000 *  -2.47200    1.000000    
    916 O     s    0.200000 *  0.700000 *  0.700000 *  -2.47200    1.000000    
    917 O     s    0.200000 *  0.700000 *  0.900000 *  -2.47200    1.000000    
    918 O     s    0.200000 *  0.900000 *  0.100000 *  -2.47200    1.000000    
    919 O     s    0.200000 *  0.900000 *  0.300000 *  -2.47200    1.000000    
    920 O     s    0.200000 *  0.900000 *  0.500000 *  -2.47200    1.000000    
    921 O     s    0.200000 *  0.900000 *  0.700000 *  -2.47200    1.000000    
    922 O     s    0.200000 *  0.900000 *  0.900000 *  -2.47200    1.000000    
    923 O     s    0.400000 *  0.100000 *  0.100000 *  -2.47200    1.000000    
    924 O     s    0.400000 *  0.100000 *  0.300000 *  -2.47200    1.000000    
    925 O     s    0.400000 *  0.100000 *  0.500000 *  -2.47200    1.000000    
    926 O     s    0.400000 *  0.100000 *  0.700000 *  -2.47200    1.000000    
    927 O     s    0.400000 *  0.100000 *  0.900000 *  -2.47200    1.000000    
    928 O     s    0.400000 *  0.300000 *  0.100000 *  -2.47200    1.000000    
    929 O     s    0.400000 *  0.300000 *  0.300000 *  -2.47200    1.000000    
    930 O     s    0.400000 *  0.300000 *  0.500000 *  -2.47200    1.000000    
    931 O     s    0.400000 *  0.300000 *  0.700000 *  -2.47200    1.000000    
    932 O     s    0.400000 *  0.300000 *  0.900000 *  -2.47200    1.000000    
    933 O     s    0.400000 *  0.500000 *  0.100000 *  -2.47200    1.000000    
    934 O     s    0.400000 *  0.500000 *  0.300000 *  -2.47200    1.000000    
    935 O     s    0.400000 *  0.500000 *  0.500000 *  -2.47200    1.000000    
    936 O     s    0.400000 *  0.500000 *  0.700000 *  -2.47200    1.000000    
    937 O     s    0.400000 *  0.500000 *  0.900000 *  -2.47200    1.000000    
    938 O     s    0.400000 *  0.700000 *  0.100000 *  -2.47200    1.000000    
    939 O     s    0.400000 *  0.700000 *  0.300000 *  -2.47200    1.000000    
    940 O     s    0.400000 *  0.700000 *  0.500000 *  -2.47200    1.000000    
    941 O     s    0.400000 *  0.700000 *  0.700000 *  -2.47200    1.000000    
    942 O     s    0.400000 *  0.700000 *  0.900000 *  -2.47200    1.000000    
    943 O     s    0.400000 *  0.900000 *  0.100000 *  -2.47200    1.000000    
    944 O     s    0.400000 *  0.900000 *  0.300000 *  -2.47200    1.000000    
    945 O     s    0.400000 *  0.900000 *  0.500000 *  -2.47200    1.000000    
    946 O     s    0.400000 *  0.900000 *  0.700000 *  -2.47200    1.000000    
    947 O     s    0.400000 *  0.900000 *  0.900000 *  -2.47200    1.000000    
    948 O     s    0.600000 *  0.100000 *  0.100000 *  -2.47200    1.000000    
    949 O     s    0.600000 *  0.100000 *  0.300000 *  -2.47200    1.000000    
    950 O     s    0.600000 *  0.100000 *  0.500000 *  -2.47200    1.000000    
    951 O     s    0.600000 *  0.100000 *  0.700000 *  -2.47200    1.000000    
    952 O     s    0.600000 *  0.100000 *  0.900000 *  -2.47200    1.000000    
    953 O     s    0.600000 *  0.300000 *  0.100000 *  -2.47200    1.000000    
    954 O     s    0.600000 *  0.300000 *  0.300000 *  -2.47200    1.000000    
    955 O     s    0.600000 *  0.300000 *  0.500000 *  -2.47200    1.000000    
    956 O     s    0.600000 *  0.300000 *  0.700000 *  -2.47200    1.000000    
    957 O     s    0.600000 *  0.300000 *  0.900000 *  -2.47200    1.000000    
    958 O     s    0.600000 *  0.500000 *  0.100000 *  -2.47200    1.000000    
    959 O     s    0.600000 *  0.500000 *  0.300000 *  -2.47200    1.000000    
    960 O     s    0.600000 *  0.500000 *  0.500000 *  -2.47200    1.000000    
    961 O     s    0.600000 *  0.500000 *  0.700000 *  -2.47200    1.000000    
    962 O     s    0.600000 *  0.500000 *  0.900000 *  -2.47200    1.000000    
[...]
                             Ba    core         1    2.7964        1    2.8006
                                                1    2.8708        1    2.8782
                             Ba    shell        1    2.8010        1    2.8037
                                                1    2.8717        1    2.8742
--------------------------------------------------------------------------------
    1113   O     shell       Ti    core         1    1.9356        1    4.3916
                                                1    4.3931        1    4.4489
                                                1    4.4504
                             O     core         1    0.0719        1    2.7903
                                                1    2.7904        1    2.8057
                                                1    2.8067        1    2.9949
                                                1    3.0024        1    3.0190
                                                1    3.0291        1    3.9055
                                                1    3.9995        1    4.0001
                                                1    4.0831        1    4.0876
                                                1    4.2558
                             O     shell        1    2.7932        1    2.7955
                                                1    2.8195        1    2.8206
                                                1    3.0354        1    3.0444
                                                1    3.0644        1    3.0761
                                                1    3.9015        1    4.0086
                                                1    4.0093        1    4.0872
                                                1    4.0927        1    4.3221
                             Ba    core         1    2.7223        1    2.7964
                                                1    2.7977        1    2.8275
                             Ba    shell        1    2.7328        1    2.7952
                                                1    2.7996        1    2.8316
                             Er    core         1    2.1704
--------------------------------------------------------------------------------
    1114   O     shell       Ti    core         1    2.0030        1    2.0254
                                                1    4.4162        1    4.4472
                                                1    4.4527        1    4.4535
                                                1    4.4874
                             O     core         1    0.0140        1    2.8162
                                                1    2.8178        1    2.8231
                                                1    2.8331        1    2.8537
                                                1    2.8675        1    2.8832
                                                1    2.9417        1    3.9684
                                                1    3.9704        1    3.9960
                                                1    3.9999        1    4.0058
                                                1    4.0429
                             O     shell        1    2.7846        1    2.8122
                                                1    2.8184        1    2.8236
                                                1    2.8495        1    2.8701
                                                1    2.8919        1    2.9518
                                                1    3.9704        1    3.9725
                                                1    3.9960        1    4.0041
                                                1    4.0093        1    4.0486
                             Ba    core         1    2.8239        1    2.8326
                                                1    2.8531        1    2.8892
                             Ba    shell        1    2.8204        1    2.8318
                                                1    2.8514        1    2.8805
--------------------------------------------------------------------------------
    1115   O     shell       Ti    core         1    2.0070        1    2.0138
                                                1    4.4263        1    4.4558
                                                1    4.4722        1    4.4803
                                                2    4.4824        1    4.4942
                             O     core         1    2.7995        1    2.8330
                                                1    2.8341        1    2.8343
                                                1    2.8371        1    2.8373
                                                1    2.8398        1    2.8652
                                                1    3.9835        1    4.0055
                                                1    4.0097        1    4.0135
                                                1    4.0221        1    4.0242
                             O     shell        1    2.8013        1    2.8316
                                                1    2.8337        1    2.8345
                                                1    2.8374        1    2.8380
                                                1    2.8430        1    2.8653
                                                1    3.9813        1    3.9960
                                                1    4.0099        1    4.0149
                                                1    4.0232        1    4.0268
                             Ba    core         1    2.8208        1    2.8311
                                                1    2.8313        1    2.8524
                             Ba    shell        1    2.8245        1    2.8303
                                                1    2.8313        1    2.8460
--------------------------------------------------------------------------------
    1116   O     shell       Ti    core         1    2.0055        1    2.0088
                                                1    4.4317        1    4.4583
                                                1    4.4674        1    4.4806
                                                1    4.4867        1    4.4872
                                                1    4.4882
                             O     core         1    2.8140        1    2.8288
                                                1    2.8344        1    2.8353
                                                1    2.8396        1    2.8404
                                                1    2.8409        1    2.8550
                                                1    3.9813        1    3.9874
                                                1    4.0080        1    4.0111
                                                1    4.0145        1    4.0160
                             O     shell        1    2.8172        1    2.8289
                                                1    2.8353        1    2.8355
                                                1    2.8403        1    2.8408
                                                1    2.8433        1    2.8544
                                                1    3.9813        1    3.9821
                                                1    4.0082        1    4.0127
                                                1    4.0143        1    4.0181
                             Ba    core         1    2.8206        1    2.8282
                                                1    2.8526        1    2.8567
                             Ba    shell        1    2.8222        1    2.8276
                                                1    2.8501        1    2.8532
--------------------------------------------------------------------------------
    1117   O     shell       Ti    core         1    2.0029        1    2.0159
                                                1    4.4407        1    4.4673
                                                1    4.4760        1    4.4767
                                                1    4.4967        1    4.4970
                             O     core         1    2.8070        1    2.8125
                                                2    2.8306        1    2.8421
                                                1    2.8457        1    2.8466
                                                1    2.9062        1    3.9799
                                                1    4.0053        1    4.0144
                                                1    4.0170        1    4.0261
                                                1    4.0923
                             O     shell        1    2.7658        1    2.8096
                                                1    2.8342        1    2.8345
                                                1    2.8433        1    2.8443
                                                1    2.8492        1    2.9098
                                                1    3.9821        1    4.0077
                                                1    4.0191        1    4.0208
                                                1    4.0303        1    4.0927
                             Ba    core         1    2.8041        1    2.8080
                                                1    2.8574        1    2.8715
                             Ba    shell        1    2.8072        1    2.8104
                                                1    2.8619        1    2.8715
--------------------------------------------------------------------------------
    1118   O     shell       Ti    core         1    1.9683        1    1.9733
                                                1    4.3829        1    4.3856
                                                1    4.4249        1    4.4252
                             O     core         1    2.6995        1    2.7084
                                                1    2.7148        1    2.7159
                                                1    2.8560        1    2.8569
                                                1    2.8831        1    2.8862
                                                1    3.8727        1    3.8821
                                                1    3.9592        1    3.9734
                                                1    4.1072        1    4.1144
                             O     shell        1    2.6989        1    2.7055
                                                1    2.7081        1    2.7085
                                                1    2.8567        1    2.8592
                                                1    2.8780        1    2.8828
                                                1    3.8668        1    3.8768
                                                1    3.9015        1    3.9553
                                                1    4.1060        1    4.1118
                             Ba    core         1    2.8478        1    2.8564
                                                1    2.9911
                             Ba    shell        1    2.8465        1    2.8576
                                                1    2.9767
                             Er    core         1    2.7279
--------------------------------------------------------------------------------
    1119   O     shell       Ti    core         1    1.9938        1    2.0016
                                                1    4.3784        1    4.3789
                                                1    4.3896        1    4.4223
                             O     core         1    0.0106        1    2.6967
                                                1    2.7132        1    2.7157
                                                1    2.7449        1    2.8478
                                                1    2.8622        1    2.8701
                                                1    2.8805        1    3.8304
                                                1    3.8723        1    3.9968
                                                1    4.0141        1    4.0721
                                                1    4.0842
                             O     shell        1    2.6836        1    2.7047
                                                1    2.7073        1    2.7421
                                                1    2.8485        1    2.8631
                                                1    2.8700        1    2.8811
                                                1    3.8239        1    3.8668
                                                1    3.9954        1    4.0041
                                                1    4.0650        1    4.0814
                             Ba    core         1    2.8233        1    2.8633
                                                1    2.9750
                             Ba    shell        1    2.8275        1    2.8633
                                                1    2.9612
                             Er    core         1    2.7299
--------------------------------------------------------------------------------
    1120   O     shell       Ti    core         1    2.0049        1    2.0079
                                                1    4.4772        1    4.4789
                                                1    4.4800        1    4.4803
                                                1    4.4833        1    4.4836
                                                1    4.4854        1    4.4909
                             O     core         1    2.8232        1    2.8294
                                                1    2.8304        1    2.8320
                                                1    2.8328        1    2.8363
                                                1    2.8380        1    2.8396
                                                1    4.0007        1    4.0083
                                                1    4.0125        1    4.0129
                                                1    4.0184        1    4.0754
                             O     shell        1    2.8228        1    2.8293
                                                1    2.8311        1    2.8321
                                                1    2.8335        1    2.8364
                                                1    2.8377        1    2.8396
                                                1    4.0005        1    4.0040
                                                1    4.0136        1    4.0146
                                                1    4.0149        1    4.0814
                             Ba    core         1    2.8258        1    2.8317
                                                1    2.8346        1    2.8358
                             Ba    shell        1    2.8246        1    2.8323
                                                1    2.8327        1    2.8350
--------------------------------------------------------------------------------
    1121   O     shell       Ti    core         1    2.0039        1    2.0072
                                                1    4.4790        1    4.4825
                                                1    4.4826        1    4.4840
                                                1    4.4843        1    4.4845
                                                1    4.4868        1    4.4902
                             O     core         1    2.8293        1    2.8309
                                                1    2.8350        1    2.8363
                                                1    2.8365        1    2.8382
                                                1    2.8402        1    2.8427
                                                1    3.9978        1    4.0024
                                                1    4.0081        1    4.0089
                                                1    4.0125        1    4.0144
                             O     shell        1    2.8283        1    2.8286
                                                1    2.8348        1    2.8363
                                                1    2.8366        1    2.8396
                                                1    2.8412        1    2.8416
                                                1    4.0005        1    4.0036
                                                1    4.0084        1    4.0095
                                                1    4.0127        1    4.0129
                             Ba    core         1    2.8272        1    2.8317
                                                1    2.8356        1    2.8398
                             Ba    shell        1    2.8281        1    2.8320
                                                1    2.8361        1    2.8394
--------------------------------------------------------------------------------
    1122   O     shell       Ti    core         1    2.0003        1    2.0051
                                                1    4.4644        1    4.4719
                                                1    4.4779        1    4.4781
                                                1    4.4838        1    4.4841
                                                1    4.4866
                             O     core         1    2.8074        1    2.8251
                                                1    2.8270        1    2.8295
                                                1    2.8348        1    2.8368
                                                1    2.8404        1    2.8434
                                                1    4.0022        1    4.0029
                                                1    4.0035        1    4.0136
                                                1    4.0169        1    4.1005
                             O     shell        1    2.8022        1    2.8258
                                                1    2.8278        1    2.8292
                                                1    2.8311        1    2.8370
                                                1    2.8379        1    2.8474
                                                1    4.0011        1    4.0016
                                                1    4.0036        1    4.0077
                                                1    4.0165        1    4.1060
                             Ba    core         1    2.8202        1    2.8281
                                                1    2.8413        1    2.8414
                             Ba    shell        1    2.8225        1    2.8295
                                                1    2.8394        1    2.8420
--------------------------------------------------------------------------------



  Time to end of optimisation =     301.5942 seconds


  Peak dynamic memory used =     230.55 MB 


  Timing analysis for GULP :

--------------------------------------------------------------------------------
  Task / Subroutine                                          Time (Seconds)
--------------------------------------------------------------------------------
  Calculation of reciprocal space energy and derivatives         16.1855
  Calculation of real space energy and derivatives              212.5687
  Calculation of three-body energy and derivatives                7.5859
  Calculation of matrix inversion                                62.7265
--------------------------------------------------------------------------------
  Total CPU time                                                301.5942
--------------------------------------------------------------------------------


  Dump file written as restart                                                 



  **** GULP has completed with   2 warnings - beware! ****

  Job Finished at 18:20.51 29th November   2018                               

